 Entering Gaussian System, Link 0=g16
 Input=camphor.com
 Output=camphor.log
 Initial command:
 /software/local/apps/gaussian-16.0/g16/l1.exe "/tmp/Gau-15049.inp" -scrdir="/tmp/"
 Entering Link 1 = /software/local/apps/gaussian-16.0/g16/l1.exe PID=     15050.
  
 Copyright (c) 1988-2019, Gaussian, Inc.  All Rights Reserved.
  
 This is part of the Gaussian(R) 16 program.  It is based on
 the Gaussian(R) 09 system (copyright 2009, Gaussian, Inc.),
 the Gaussian(R) 03 system (copyright 2003, Gaussian, Inc.),
 the Gaussian(R) 98 system (copyright 1998, Gaussian, Inc.),
 the Gaussian(R) 94 system (copyright 1995, Gaussian, Inc.),
 the Gaussian 92(TM) system (copyright 1992, Gaussian, Inc.),
 the Gaussian 90(TM) system (copyright 1990, Gaussian, Inc.),
 the Gaussian 88(TM) system (copyright 1988, Gaussian, Inc.),
 the Gaussian 86(TM) system (copyright 1986, Carnegie Mellon
 University), and the Gaussian 82(TM) system (copyright 1983,
 Carnegie Mellon University). Gaussian is a federally registered
 trademark of Gaussian, Inc.
  
 This software contains proprietary and confidential information,
 including trade secrets, belonging to Gaussian, Inc.
  
 This software is provided under written license and may be
 used, copied, transmitted, or stored only in accord with that
 written license.
  
 The following legend is applicable only to US Government
 contracts under FAR:
  
                    RESTRICTED RIGHTS LEGEND
  
 Use, reproduction and disclosure by the US Government is
 subject to restrictions as set forth in subparagraphs (a)
 and (c) of the Commercial Computer Software - Restricted
 Rights clause in FAR 52.227-19.
  
 Gaussian, Inc.
 340 Quinnipiac St., Bldg. 40, Wallingford CT 06492
  
  
 ---------------------------------------------------------------
 Warning -- This program may not be used in any manner that
 competes with the business of Gaussian, Inc. or will provide
 assistance to any competitor of Gaussian, Inc.  The licensee
 of this program is prohibited from giving any competitor of
 Gaussian, Inc. access to this program.  By using this program,
 the user acknowledges that Gaussian, Inc. is engaged in the
 business of creating and licensing software in the field of
 computational chemistry and represents and warrants to the
 licensee that it is not a competitor of Gaussian, Inc. and that
 it will not use this program in any manner prohibited above.
 ---------------------------------------------------------------
  

 Cite this work as:
 Gaussian 16, Revision C.01,
 M. J. Frisch, G. W. Trucks, H. B. Schlegel, G. E. Scuseria, 
 M. A. Robb, J. R. Cheeseman, G. Scalmani, V. Barone, 
 G. A. Petersson, H. Nakatsuji, X. Li, M. Caricato, A. V. Marenich, 
 J. Bloino, B. G. Janesko, R. Gomperts, B. Mennucci, H. P. Hratchian, 
 J. V. Ortiz, A. F. Izmaylov, J. L. Sonnenberg, D. Williams-Young, 
 F. Ding, F. Lipparini, F. Egidi, J. Goings, B. Peng, A. Petrone, 
 T. Henderson, D. Ranasinghe, V. G. Zakrzewski, J. Gao, N. Rega, 
 G. Zheng, W. Liang, M. Hada, M. Ehara, K. Toyota, R. Fukuda, 
 J. Hasegawa, M. Ishida, T. Nakajima, Y. Honda, O. Kitao, H. Nakai, 
 T. Vreven, K. Throssell, J. A. Montgomery, Jr., J. E. Peralta, 
 F. Ogliaro, M. J. Bearpark, J. J. Heyd, E. N. Brothers, K. N. Kudin, 
 V. N. Staroverov, T. A. Keith, R. Kobayashi, J. Normand, 
 K. Raghavachari, A. P. Rendell, J. C. Burant, S. S. Iyengar, 
 J. Tomasi, M. Cossi, J. M. Millam, M. Klene, C. Adamo, R. Cammi, 
 J. W. Ochterski, R. L. Martin, K. Morokuma, O. Farkas, 
 J. B. Foresman, and D. J. Fox, Gaussian, Inc., Wallingford CT, 2019.
 
 ******************************************
 Gaussian 16:  ES64L-G16RevC.01  3-Jul-2019
                21-Feb-2025 
 ******************************************
 %Chk=camphor_NMR.chk
 %NoSave
 %mem=26GB
 %NProcShared=8
 Will use up to    8 processors via shared memory.
 -----------------------------------------------------------
 #T nmr(giao,spinspin,mixed) wB97XD/6-311g(d,p) maxdisk=50GB
 -----------------------------------------------------------


 Symbolic Z-matrix:
 Charge =  0 Multiplicity = 1
 C                    -1.20888  -0.43136  -1.60591 
 C                    -0.7336   -0.25412  -0.16558 
 C                    -1.53723  -1.2191    0.71025 
 C                    -0.76574   1.20865   0.33194 
 C                     0.25786   1.90359  -0.57535 
 C                     1.35443   0.83414  -0.73146 
 C                     0.79572  -0.39444   0.03389 
 C                     1.46495  -1.7088   -0.30946 
 C                     0.94913   0.04733   1.47583 
 O                     1.78072  -0.3319    2.2706 
 C                    -0.10798   1.10336   1.70923 
 H                    -2.26755  -0.18688  -1.66896 
 H                    -1.08228  -1.46713  -1.91264 
 H                    -0.67171   0.19612  -2.30739 
 H                    -2.56221  -0.8671    0.81033 
 H                    -1.10823  -1.32971   1.70259 
 H                    -1.56362  -2.2047    0.25044 
 H                    -1.74617   1.68178   0.34208 
 H                     0.63794   2.81619  -0.11677 
 H                    -0.18114   2.17657  -1.53363 
 H                     1.52726   0.56811  -1.77339 
 H                     2.30874   1.15165  -0.30902 
 H                     1.40232  -1.90447  -1.37729 
 H                     0.99318  -2.5267    0.22961 
 H                     2.51339  -1.67353  -0.01946 
 H                    -0.7971    0.77871   2.48889 
 H                     0.3478    2.03372   2.05061 
 
                    Distance matrix (angstroms):
                    1          2          3          4          5
     1  C    0.000000
     2  C    1.527043   0.000000
     3  C    2.468392   1.531038   0.000000
     4  C    2.577066   1.545400   2.575324   0.000000
     5  C    2.943701   2.409695   3.824437   1.534236   0.000000
     6  C    2.989433   2.421653   3.828314   2.401294   1.539664
     7  C    2.590118   1.548641   2.565179   2.257631   2.437501
     8  C    3.234505   2.640157   3.208219   3.728125   3.818001
     9  C    3.792528   2.369952   2.893424   2.365996   2.851473
    10  O    4.896417   3.501827   3.772339   3.551919   3.926309
    11  C    3.815431   2.397723   2.904230   1.529924   2.448164
    12  H    1.088357   2.148878   2.694348   2.864706   3.455973
    13  H    1.087629   2.155272   2.673584   3.506873   3.866018
    14  H    1.083679   2.189503   3.443567   2.828455   2.603757
    15  H    2.803496   2.161469   1.088354   2.786555   4.189228
    16  H    3.429770   2.187986   1.086738   2.905036   4.184426
    17  H    2.591638   2.160264   1.087899   3.506308   4.569216
    18  H    2.923809   2.242926   2.931607   1.088669   2.215181
    19  H    4.021797   3.363085   4.658212   2.180795   1.089766
    20  H    2.804060   2.843419   4.290053   2.181509   1.088830
    21  H    2.917783   2.893546   4.330550   3.178138   2.197765
    22  H    4.069575   3.354484   4.631497   3.141097   2.200552
    23  H    3.006776   2.958726   3.669946   4.160948   4.056378
    24  H    3.550873   2.881419   2.888561   4.130029   4.562471
    25  H    4.232624   3.546690   4.140827   4.379855   4.265229
    26  H    4.289659   2.849026   2.775355   2.199598   3.430423
    27  H    4.676535   3.363796   3.991332   2.207833   2.630714
                    6          7          8          9         10
     6  C    0.000000
     7  C    1.551555   0.000000
     8  C    2.580083   1.514365   0.000000
     9  C    2.378122   1.515881   2.556819   0.000000
    10  O    3.248644   2.444791   2.941473   1.211199   0.000000
    11  C    2.857986   2.422159   3.802300   1.512336   2.437677
    12  H    3.878159   3.510893   4.253944   4.504617   5.650628
    13  H    3.553673   2.909727   3.019436   4.231069   5.194708
    14  H    2.644975   2.825546   3.490815   4.118502   5.220269
    15  H    4.539976   3.478782   4.263849   3.688977   4.613005
    16  H    4.083076   2.698944   3.288361   2.486035   3.108742
    17  H    4.325925   2.981671   3.119554   3.589860   4.332781
    18  H    3.388912   3.296495   4.715066   3.349850   4.495894
    19  H    2.195392   3.218040   4.603983   3.209341   4.112905
    20  H    2.191711   3.165671   4.393669   3.855911   4.961195
    21  H    1.089154   2.174376   2.707637   3.341089   4.150671
    22  H    1.090853   2.190252   2.982303   2.500750   3.022274
    23  H    2.814132   2.153967   1.087416   3.486430   3.990395
    24  H    3.514169   2.150308   1.087255   2.860177   3.098867
    25  H    2.852805   2.142266   1.088378   2.764804   2.753386
    26  H    3.873337   3.152832   4.374393   2.147207   2.815355
    27  H    3.192520   3.188065   4.563377   2.153538   2.774491
                   11         12         13         14         15
    11  C    0.000000
    12  H    4.211965   0.000000
    13  H    4.546939   1.761612   0.000000
    14  H    4.156221   1.760961   1.758067   0.000000
    15  H    3.273223   2.587743   3.156706   3.797977   0.000000
    16  H    2.630661   3.743984   3.617933   4.312617   1.767534
    17  H    3.897464   2.872489   2.335505   3.619656   1.760635
    18  H    2.210742   2.794273   3.929389   3.222007   2.716974
    19  H    2.612374   4.457531   4.952894   3.657701   4.966602
    20  H    3.416619   3.155517   3.772565   2.182097   4.519685
    21  H    3.884473   3.870593   3.312297   2.293254   5.045710
    22  H    3.148996   4.958171   4.574777   3.713433   5.390211
    23  H    4.566691   4.062405   2.578977   3.095023   4.645357
    24  H    4.071753   4.439788   3.165359   4.077013   3.966398
    25  H    4.191783   5.271465   4.068856   4.344547   5.205820
    26  H    1.090017   4.514674   4.949603   4.833159   2.939705
    27  H    1.090798   5.060266   5.477994   4.838218   4.291992
                   16         17         18         19         20
    16  H    0.000000
    17  H    1.755486   0.000000
    18  H    3.365562   3.891838   0.000000
    19  H    4.852598   5.494638   2.679823   0.000000
    20  H    4.860719   4.928450   2.492471   1.757125   0.000000
    21  H    4.757094   4.619290   4.053492   2.930720   2.358657
    22  H    4.677536   5.154914   4.140925   2.366270   2.957977
    23  H    4.014835   3.396533   5.072514   4.945484   4.380258
    24  H    2.831676   2.577080   5.022749   5.365884   5.158374
    25  H    4.024897   4.120311   5.434395   4.866659   4.937252
    26  H    2.271674   3.807749   2.514970   3.605568   4.302793
    27  H    3.681548   4.985812   2.725378   2.322498   3.625871
                   21         22         23         24         25
    21  H    0.000000
    22  H    1.759427   0.000000
    23  H    2.507218   3.361935   0.000000
    24  H    3.724931   3.943481   1.771079   0.000000
    25  H    3.012251   2.847337   1.769608   1.760957   0.000000
    26  H    4.859417   4.196848   5.194633   4.385791   4.823336
    27  H    4.261697   3.192359   5.326521   4.952775   4.766406
                   26         27
    26  H    0.000000
    27  H    1.754400   0.000000
 Framework group  C1[X(C10H16O)]
 Deg. of freedom    75
                         Standard orientation:                         
 ---------------------------------------------------------------------
 Center     Atomic      Atomic             Coordinates (Angstroms)
 Number     Number       Type             X           Y           Z
 ---------------------------------------------------------------------
      1          6           0       -2.299297   -0.454669   -0.237828
      2          6           0       -0.932333   -0.219619    0.400937
      3          6           0       -0.886486   -1.018746    1.706070
      4          6           0       -0.566744    1.271966    0.573508
      5          6           0       -0.487526    1.776752   -0.873142
      6          6           0        0.142401    0.583693   -1.615009
      7          6           0        0.274240   -0.512290   -0.524705
      8          6           0        0.466681   -1.915301   -1.061203
      9          6           0        1.423572    0.020588    0.307743
     10          8           0        2.564654   -0.385326    0.320807
     11          6           0        0.876239    1.201998    1.077066
     12          1           0       -3.077617   -0.100245    0.435316
     13          1           0       -2.453104   -1.518786   -0.401943
     14          1           0       -2.413439    0.053081   -1.188365
     15          1           0       -1.522144   -0.548824    2.454152
     16          1           0        0.121093   -1.098613    2.105327
     17          1           0       -1.255567   -2.028129    1.537402
     18          1           0       -1.233129    1.849975    1.211503
     19          1           0        0.125789    2.674599   -0.945994
     20          1           0       -1.474184    2.021259   -1.263364
     21          1           0       -0.489062    0.219969   -2.424463
     22          1           0        1.117493    0.825588   -2.040030
     23          1           0       -0.346051   -2.185283   -1.731316
     24          1           0        0.505998   -2.631588   -0.244189
     25          1           0        1.406470   -1.973760   -1.607047
     26          1           0        0.946936    1.017181    2.148971
     27          1           0        1.458804    2.099950    0.866973
 ---------------------------------------------------------------------
 Rotational constants (GHZ):           1.4707464           1.1929736           1.1067164
 Converting basis for Fermi contact spin-spin IFCMod=1.
   555 basis functions,   566 primitive gaussians,   566 cartesian basis functions
    42 alpha electrons       42 beta electrons
       nuclear repulsion energy       691.2208793098 Hartrees.
 NAtoms=   27 NActive=   27 NUniq=   27 SFac= 1.00D+00 NAtFMM=   60 NAOKFM=F Big=F
 Nuclear repulsion after empirical dispersion term =      691.1962253918 Hartrees.
 ExpMin= 1.03D-01 ExpMax= 7.73D+04 ExpMxC= 7.73D+04 IAcc=4 IRadAn=    199590 AccDes= 0.00D+00
 Harris functional with IExCor= 4639 and IRadAn=  199590 diagonalized for initial guess.
 HarFok:  IExCor= 4639 AccDes= 0.00D+00 IRadAn=    199590 IDoV= 1 UseB2=F ITyADJ=14
 ICtDFT=  3500011 ScaDFX=  1.000000  1.000000  1.000000  1.000000
 FoFCou: FMM=F IPFlag=           0 FMFlag=      100000 FMFlg1=           0
         NFxFlg=           0 DoJE=T BraDBF=F KetDBF=T FulRan=T
         wScrn=  0.000000 ICntrl=       500 IOpCl=  0 I1Cent=   200000004 NGrid=           0
         NMat0=    1 NMatS0=      1 NMatT0=    0 NMatD0=    1 NMtDS0=    0 NMtDT0=    0
 Petite list used in FoFCou.
 Integral accuracy reduced to 1.0D-05 until final iterations.
 Initial convergence to 1.0D-05 achieved.  Increase integral accuracy.
 SCF Done:  E(RwB97XD) =  -465.939674101     A.U. after   13 cycles
            NFock= 13  Conv=0.94D-08     -V/T= 2.0048
 DoSCS=F DFT=T ScalE2(SS,OS)=  1.000000  1.000000
 NROrb=    555 NOA=    42 NOB=    42 NVA=   513 NVB=   513

 **** Warning!!: The largest alpha MO coefficient is  0.22355713D+02

          IDoAtm=111111111111111111111111111
          Differentiating once with respect to Fermi-contact.
          Electric field/nuclear overlap derivatives assumed to be zero.
 Fermi Contact (FC) contribution to K (Hz):
                1             2             3             4             5 
      1  0.123400D+11
      2  0.176481D+02  0.123400D+11
      3  0.153024D+01  0.169153D+02  0.123400D+11
      4  0.893496D-01  0.147295D+02  0.310561D+00  0.123400D+11
      5  0.889125D+00  0.803123D+00  0.131579D+01  0.149038D+02  0.123400D+11
      6  0.895467D+00  0.654181D+00  0.128128D+01 -0.246618D+00  0.145523D+02
      7  0.207883D-01  0.160023D+02  0.523487D+00  0.225362D+01  0.613025D-01
      8  0.309189D+00  0.508083D+00  0.413768D+00  0.157623D+01  0.149746D+01
      9  0.158783D+01  0.196446D+01  0.718608D+00  0.580323D+00  0.233715D+00
     10  0.133400D+00  0.422303D+00 -0.755691D-02  0.582736D+00 -0.117360D+00
     11  0.719170D+00 -0.157222D+00  0.875095D+00  0.154820D+02 -0.220294D+00
     12  0.144405D+02 -0.490723D+00  0.280464D+00  0.302623D+00 -0.232891D-01
     13  0.145062D+02 -0.530562D+00  0.379108D+00  0.101551D+01  0.757211D-01
     14  0.143246D+02 -0.454212D+00  0.123283D+01  0.161531D+00  0.471941D-01
     15  0.126851D+00 -0.478626D+00  0.144678D+02  0.416213D+00 -0.288465D-01
     16  0.115371D+01 -0.427100D+00  0.143101D+02  0.430670D-01 -0.417143D-01
     17  0.548165D+00 -0.499404D+00  0.145432D+02  0.933721D+00  0.606638D-01
     18  0.176261D+00 -0.903745D-01  0.129182D+00  0.163839D+02 -0.155065D-01
     19  0.416089D-01  0.789098D+00  0.563599D-01 -0.356128D+00  0.152264D+02
     20  0.697034D-01  0.363138D-01 -0.360451D-01 -0.377445D+00  0.149957D+02
     21  0.379729D-01  0.371512D-01 -0.323382D-01  0.194856D+00 -0.425955D+00
     22  0.149114D-01  0.758134D+00  0.254842D-01  0.195909D+00 -0.242596D+00
     23  0.294640D-01  0.105504D+00 -0.132012D-01 -0.315214D-01 -0.726499D-02
     24 -0.152935D-01  0.179427D+00  0.277325D-01 -0.410605D-01  0.118700D+00
     25  0.522659D-02  0.896341D+00 -0.112322D-01 -0.368641D-01 -0.256764D-01
     26 -0.332821D-01  0.718852D-01  0.114895D+00 -0.294873D+00  0.109347D+01
     27  0.117917D+00  0.104950D+01  0.681081D-01 -0.286606D+00  0.714844D+00
                6             7             8             9            10 
      6  0.123400D+11
      7  0.133456D+02  0.123400D+11
      8  0.916072D+00  0.189483D+02  0.123400D+11
      9 -0.125191D+01  0.201125D+02  0.253363D-01  0.123400D+11
     10  0.903873D+00  0.173512D+01  0.769396D+00 -0.144772D+02  0.123400D+11
     11  0.184034D-01  0.616278D+01  0.546510D+00  0.179516D+02  0.228631D+01
     12  0.777022D-01  0.899495D+00 -0.357939D-02  0.543072D-01  0.604467D-01
     13 -0.224959D-01  0.152423D+00  0.256332D-01 -0.476706D-01  0.398016D-02
     14  0.316163D-01  0.200050D+00 -0.108134D-01 -0.401034D-01 -0.810336D-04
     15  0.417786D-01  0.872737D+00  0.157537D-01  0.428459D-02  0.222395D-02
     16 -0.960322D-02  0.381327D+00  0.267779D-02 -0.247312D-01  0.264117D-01
     17 -0.100849D-01  0.438286D-01  0.257902D-01 -0.205840D-01  0.165562D-02
     18  0.835529D+00  0.529339D+00  0.807887D-01  0.105151D+01  0.676488D-01
     19 -0.252519D+00  0.248036D+00 -0.804238D-02 -0.420602D-01  0.825685D-03
     20 -0.427756D+00  0.122807D+00 -0.153482D-01 -0.924213D-01  0.122948D-01
     21  0.154719D+02 -0.471999D+00  0.432991D+00  0.854242D+00  0.156080D+00
     22  0.153381D+02 -0.295354D+00  0.334318D-01  0.613441D+00  0.219907D-01
     23  0.389411D+00 -0.494837D+00  0.144954D+02  0.103990D+01  0.545652D-01
     24  0.112350D+01 -0.541473D+00  0.144472D+02  0.172185D+00 -0.435528D-02
     25  0.151337D+00 -0.655899D+00  0.149166D+02  0.251300D+00  0.524884D-01
     26 -0.951385D-01 -0.181135D-01  0.433092D-01 -0.835111D+00  0.427473D+00
     27 -0.654666D-02  0.130344D+00 -0.165594D-01 -0.634871D+00  0.347157D+00
               11            12            13            14            15 
     11  0.123400D+11
     12 -0.433156D-02  0.123400D+11
     13  0.981479D-01 -0.420406D+00  0.123400D+11
     14 -0.257750D-01 -0.396945D+00 -0.392514D+00  0.123400D+11
     15 -0.224836D-01 -0.518799D-03 -0.832840D-02 -0.665598D-02  0.123400D+11
     16  0.817038D-01  0.113173D-01  0.698371D-02  0.122999D+00 -0.392024D+00
     17  0.914767D-01 -0.428701D-02 -0.263473D-02  0.253265D-01 -0.419148D+00
     18 -0.813947D-01 -0.488952D-02 -0.114446D-01 -0.464653D-02 -0.534274D-02
     19  0.696166D+00  0.801687D-03 -0.105971D-02  0.323256D-02  0.510703D-02
     20  0.112199D+01  0.499740D-03  0.509212D-02 -0.399063D-02  0.361867D-03
     21 -0.827320D-01  0.241278D-02  0.407875D-03 -0.240921D-02 -0.994038D-03
     22 -0.179954D-01 -0.934235D-03  0.118299D-02  0.157581D-02  0.234303D-01
     23  0.105718D+00  0.201468D-02  0.273234D-02  0.578788D-03  0.322461D-02
     24 -0.143005D-01  0.180115D-02  0.795949D-03  0.141195D-02  0.119166D-02
     25 -0.264688D-01 -0.206186D-02  0.112004D-02  0.350706D-03 -0.144386D-02
     26  0.148656D+02  0.145417D-03 -0.647655D-03  0.238958D-03 -0.159558D-03
     27  0.152176D+02 -0.348275D-02  0.218114D-01 -0.766071D-04 -0.255443D-03
               16            17            18            19            20 
     16  0.123400D+11
     17 -0.413998D+00  0.123400D+11
     18 -0.297422D-02 -0.103860D-01  0.123400D+11
     19 -0.557900D-03  0.238202D-01  0.217746D-01  0.123400D+11
     20  0.200789D-03  0.414775D-04  0.138827D+00 -0.398014D+00  0.123400D+11
     21  0.602887D-03  0.806151D-03  0.157340D-01  0.116466D+00  0.368352D+00
     22  0.953187D-03  0.872802D-03 -0.101769D-01  0.311315D+00  0.150091D+00
     23  0.263867D-02  0.141068D-03 -0.871041D-03  0.487366D-02 -0.779463D-03
     24  0.857888D-03  0.234183D-02  0.212908D-02  0.104540D-01  0.176711D-02
     25  0.648615D-03  0.115442D-02  0.263483D-01  0.588551D-04  0.524586D-03
     26  0.164394D-01  0.163008D-01  0.157146D+00  0.165249D-01  0.813702D-01
     27  0.131602D-01  0.190757D-02  0.163676D-01 -0.815846D-02  0.118612D-01
               21            22            23            24            25 
     21  0.123400D+11
     22 -0.430286D+00  0.123400D+11
     23 -0.628083D-02 -0.708470D-02  0.123400D+11
     24  0.848132D-02 -0.170451D-01 -0.369684D+00  0.123400D+11
     25 -0.441050D-02 -0.474810D-02 -0.400508D+00 -0.436369D+00  0.123400D+11
     26 -0.330022D-01 -0.204989D-03  0.566892D-02 -0.715323D-03  0.163132D-02
     27  0.399309D-02  0.343330D-02  0.465096D-02  0.471318D-02  0.408098D-03
               26            27 
     26  0.123400D+11
     27 -0.601840D+00  0.123400D+11
 Fermi Contact (FC) contribution to J (Hz):
                1             2             3             4             5 
      1  0.243533D+11
      2  0.348289D+02  0.243533D+11
      3  0.301998D+01  0.333828D+02  0.243533D+11
      4  0.176334D+00  0.290691D+02  0.612901D+00  0.243533D+11
      5  0.175471D+01  0.158498D+01  0.259675D+01  0.294131D+02  0.243533D+11
      6  0.176723D+01  0.129104D+01  0.252863D+01 -0.486707D+00  0.287193D+02
      7  0.410262D-01  0.315809D+02  0.103311D+01  0.444758D+01  0.120982D+00
      8  0.610192D+00  0.100271D+01  0.816581D+00  0.311073D+01  0.295527D+01
      9  0.313361D+01  0.387691D+01  0.141819D+01  0.114528D+01  0.461243D+00
     10 -0.141962D+00 -0.449406D+00  0.804192D-02 -0.620137D+00  0.124892D+00
     11  0.141930D+01 -0.310281D+00  0.172702D+01  0.305542D+02 -0.434756D+00
     12  0.113313D+03 -0.385066D+01  0.220077D+01  0.237465D+01 -0.182748D+00
     13  0.113829D+03 -0.416327D+01  0.297483D+01  0.796861D+01  0.594176D+00
     14  0.112403D+03 -0.356416D+01  0.967389D+01  0.126752D+01  0.370327D+00
     15  0.995386D+00 -0.375573D+01  0.113527D+03  0.326598D+01 -0.226356D+00
     16  0.905303D+01 -0.335141D+01  0.112290D+03  0.337943D+00 -0.327328D+00
     17  0.430140D+01 -0.391878D+01  0.114119D+03  0.732682D+01  0.476023D+00
     18  0.138310D+01 -0.709160D+00  0.101368D+01  0.128563D+03 -0.121678D+00
     19  0.326501D+00  0.619197D+01  0.442250D+00 -0.279450D+01  0.119480D+03
     20  0.546956D+00  0.284951D+00 -0.282842D+00 -0.296177D+01  0.117670D+03
     21  0.297970D+00  0.291522D+00 -0.253754D+00  0.152901D+01 -0.334243D+01
     22  0.117008D+00  0.594901D+01  0.199972D+00  0.153728D+01 -0.190363D+01
     23  0.231201D+00  0.827883D+00 -0.103588D+00 -0.247345D+00 -0.570077D-01
     24 -0.120007D+00  0.140794D+01  0.217614D+00 -0.322198D+00  0.931426D+00
     25  0.410126D-01  0.703350D+01 -0.881376D-01 -0.289269D+00 -0.201480D+00
     26 -0.261161D+00  0.564076D+00  0.901566D+00 -0.231384D+01  0.858033D+01
     27  0.925285D+00  0.823530D+01  0.534438D+00 -0.224897D+01  0.560931D+01
                6             7             8             9            10 
      6  0.243533D+11
      7  0.263378D+02  0.243533D+11
      8  0.180789D+01  0.373949D+02  0.243533D+11
      9 -0.247067D+01  0.396926D+02  0.500018D-01  0.243533D+11
     10 -0.961884D+00 -0.184648D+01 -0.818776D+00  0.154063D+02  0.708114D+10
     11  0.363196D-01  0.121624D+02  0.107855D+01  0.354278D+02 -0.243305D+01
     12  0.609721D+00  0.705825D+01 -0.280872D-01  0.426143D+00 -0.255767D+00
     13 -0.176523D+00  0.119604D+01  0.201141D+00 -0.374066D+00 -0.168411D-01
     14  0.248090D+00  0.156977D+01 -0.848515D-01 -0.314687D+00  0.342875D-03
     15  0.327833D+00  0.684828D+01  0.123618D+00  0.336208D-01 -0.941015D-02
     16 -0.753555D-01  0.299224D+01  0.210124D-01 -0.194063D+00 -0.111755D+00
     17 -0.791353D-01  0.343919D+00  0.202373D+00 -0.161521D+00 -0.700537D-02
     18  0.655631D+01  0.415367D+01  0.633941D+00  0.825113D+01 -0.286241D+00
     19 -0.198149D+01  0.194631D+01 -0.631078D-01 -0.330042D+00 -0.349370D-02
     20 -0.335656D+01  0.963657D+00 -0.120436D+00 -0.725221D+00 -0.520225D-01
     21  0.121406D+03 -0.370373D+01  0.339764D+01  0.670315D+01 -0.660415D+00
     22  0.120356D+03 -0.231761D+01  0.262336D+00  0.481362D+01 -0.930487D-01
     23  0.305567D+01 -0.388294D+01  0.113744D+03  0.816002D+01 -0.230880D+00
     24  0.881597D+01 -0.424889D+01  0.113366D+03  0.135112D+01  0.184284D-01
     25  0.118753D+01 -0.514677D+01  0.117049D+03  0.197193D+01 -0.222093D+00
     26 -0.746542D+00 -0.142135D+00  0.339843D+00 -0.655304D+01 -0.180876D+01
     27 -0.513710D-01  0.102279D+01 -0.129940D+00 -0.498177D+01 -0.146892D+01
               11            12            13            14            15 
     11  0.243533D+11
     12 -0.339893D-01  0.385007D+12
     13  0.770157D+00 -0.131167D+02  0.385007D+12
     14 -0.202254D+00 -0.123847D+02 -0.122464D+02  0.385007D+12
     15 -0.176426D+00 -0.161865D-01 -0.259846D+00 -0.207666D+00  0.385007D+12
     16  0.641122D+00  0.353099D+00  0.217891D+00  0.383755D+01 -0.122311D+02
     17  0.717809D+00 -0.133754D+00 -0.822034D-01  0.790186D+00 -0.130774D+02
     18 -0.638696D+00 -0.152553D+00 -0.357071D+00 -0.144971D+00 -0.166693D+00
     19  0.546275D+01  0.250126D-01 -0.330629D-01  0.100856D+00  0.159339D+00
     20  0.880415D+01  0.155919D-01  0.158874D+00 -0.124507D+00  0.112902D-01
     21 -0.649190D+00  0.752785D-01  0.127257D-01 -0.751673D-01 -0.310139D-01
     22 -0.141208D+00 -0.291481D-01  0.369093D-01  0.491652D-01  0.731023D+00
     23  0.829560D+00  0.628580D-01  0.852489D-01  0.180582D-01  0.100608D+00
     24 -0.112215D+00  0.561958D-01  0.248336D-01  0.440528D-01  0.371798D-01
     25 -0.207698D+00 -0.643298D-01  0.349451D-01  0.109420D-01 -0.450484D-01
     26  0.116649D+03  0.453701D-02 -0.202068D-01  0.745549D-02 -0.497819D-02
     27  0.119411D+03 -0.108662D+00  0.680514D+00 -0.239014D-02 -0.796982D-02
               16            17            18            19            20 
     16  0.385007D+12
     17 -0.129167D+02  0.385007D+12
     18 -0.927956D-01 -0.324043D+00  0.385007D+12
     19 -0.174064D-01  0.743190D+00  0.679366D+00  0.385007D+12
     20  0.626461D-02  0.129410D-02  0.433140D+01 -0.124180D+02  0.385007D+12
     21  0.188100D-01  0.251519D-01  0.490901D+00  0.363374D+01  0.114926D+02
     22  0.297394D-01  0.272314D-01 -0.317518D+00  0.971301D+01  0.468283D+01
     23  0.823263D-01  0.440133D-02 -0.271764D-01  0.152058D+00 -0.243192D-01
     24  0.267661D-01  0.730650D-01  0.664271D-01  0.326164D+00  0.551338D-01
     25  0.202368D-01  0.360178D-01  0.822067D+00  0.183628D-02  0.163671D-01
     26  0.512908D+00  0.508584D+00  0.490296D+01  0.515575D+00  0.253875D+01
     27  0.410597D+00  0.595160D-01  0.510669D+00 -0.254543D+00  0.370069D+00
               21            22            23            24            25 
     21  0.385007D+12
     22 -0.134249D+02  0.385007D+12
     23 -0.195962D+00 -0.221042D+00  0.385007D+12
     24  0.264617D+00 -0.531807D+00 -0.115341D+02  0.385007D+12
     25 -0.137607D+00 -0.148141D+00 -0.124958D+02 -0.136147D+02  0.385007D+12
     26 -0.102967D+01 -0.639566D-02  0.176870D+00 -0.223181D-01  0.508970D-01
     27  0.124584D+00  0.107119D+00  0.145110D+00  0.147051D+00  0.127326D-01
               26            27 
     26  0.385007D+12
     27 -0.187774D+02  0.385007D+12
 End of Minotr F.D. properties file   721 does not exist.
 End of Minotr F.D. properties file   722 does not exist.
 End of Minotr F.D. properties file   788 does not exist.

 **********************************************************************

            Population analysis using the SCF Density.

 **********************************************************************

 Orbital symmetries:
       Occupied  (A) (A) (A) (A) (A) (A) (A) (A) (A) (A) (A) (A)
                 (A) (A) (A) (A) (A) (A) (A) (A) (A) (A) (A) (A)
                 (A) (A) (A) (A) (A) (A) (A) (A) (A) (A) (A) (A)
                 (A) (A) (A) (A) (A) (A)
       Virtual   (A) (A) (A) (A) (A) (A) (A) (A) (A) (A) (A) (A)
                 (A) (A) (A) (A) (A) (A) (A) (A) (A) (A) (A) (A)
                 (A) (A) (A) (A) (A) (A) (A) (A) (A) (A) (A) (A)
                 (A) (A) (A) (A) (A) (A) (A) (A) (A) (A) (A) (A)
                 (A) (A) (A) (A) (A) (A) (A) (A) (A) (A) (A) (A)
                 (A) (A) (A) (A) (A) (A) (A) (A) (A) (A) (A) (A)
                 (A) (A) (A) (A) (A) (A) (A) (A) (A) (A) (A) (A)
                 (A) (A) (A) (A) (A) (A) (A) (A) (A) (A) (A) (A)
                 (A) (A) (A) (A) (A) (A) (A) (A) (A) (A) (A) (A)
                 (A) (A) (A) (A) (A) (A) (A) (A) (A) (A) (A) (A)
                 (A) (A) (A) (A) (A) (A) (A) (A) (A) (A) (A) (A)
                 (A) (A) (A) (A) (A) (A) (A) (A) (A) (A) (A) (A)
                 (A) (A) (A) (A) (A) (A) (A) (A) (A) (A) (A) (A)
                 (A) (A) (A) (A) (A) (A) (A) (A) (A) (A) (A) (A)
                 (A) (A) (A) (A) (A) (A) (A) (A) (A) (A) (A) (A)
                 (A) (A) (A) (A) (A) (A) (A) (A) (A) (A) (A) (A)
                 (A) (A) (A) (A) (A) (A) (A) (A) (A) (A) (A) (A)
                 (A) (A) (A) (A) (A) (A) (A) (A) (A) (A) (A) (A)
                 (A) (A) (A) (A) (A) (A) (A) (A) (A) (A) (A) (A)
                 (A) (A) (A) (A) (A) (A) (A) (A) (A) (A) (A) (A)
                 (A) (A) (A) (A) (A) (A) (A) (A) (A) (A) (A) (A)
                 (A) (A) (A) (A) (A) (A) (A) (A) (A) (A) (A) (A)
                 (A) (A) (A) (A) (A) (A) (A) (A) (A) (A) (A) (A)
                 (A) (A) (A) (A) (A) (A) (A) (A) (A) (A) (A) (A)
                 (A) (A) (A) (A) (A) (A) (A) (A) (A) (A) (A) (A)
                 (A) (A) (A) (A) (A) (A) (A) (A) (A) (A) (A) (A)
                 (A) (A) (A) (A) (A) (A) (A) (A) (A) (A) (A) (A)
                 (A) (A) (A) (A) (A) (A) (A) (A) (A) (A) (A) (A)
                 (A) (A) (A) (A) (A) (A) (A) (A) (A) (A) (A) (A)
                 (A) (A) (A) (A) (A) (A) (A) (A) (A) (A) (A) (A)
                 (A) (A) (A) (A) (A) (A) (A) (A) (A) (A) (A) (A)
                 (A) (A) (A) (A) (A) (A) (A) (A) (A) (A) (A) (A)
                 (A) (A) (A) (A) (A) (A) (A) (A) (A) (A) (A) (A)
                 (A) (A) (A) (A) (A) (A) (A) (A) (A) (A) (A) (A)
                 (A) (A) (A) (A) (A) (A) (A) (A) (A) (A) (A) (A)
                 (A) (A) (A) (A) (A) (A) (A) (A) (A) (A) (A) (A)
                 (A) (A) (A) (A) (A) (A) (A) (A) (A) (A) (A) (A)
                 (A) (A) (A) (A) (A) (A) (A) (A) (A) (A) (A) (A)
                 (A) (A) (A) (A) (A) (A) (A) (A) (A) (A) (A) (A)
                 (A) (A) (A) (A) (A) (A) (A) (A) (A) (A) (A) (A)
                 (A) (A) (A) (A) (A) (A) (A) (A) (A) (A) (A) (A)
                 (A) (A) (A) (A) (A) (A) (A) (A) (A) (A) (A) (A)
                 (A) (A) (A) (A) (A) (A) (A) (A) (A)
 The electronic state is 1-A.
 Alpha  occ. eigenvalues --  -19.23078 -10.36776 -10.30487 -10.29838 -10.29553
 Alpha  occ. eigenvalues --  -10.29081 -10.28774 -10.28663 -10.27864 -10.27847
 Alpha  occ. eigenvalues --  -10.27340  -1.13919  -1.00060  -0.87667  -0.86878
 Alpha  occ. eigenvalues --   -0.84258  -0.78557  -0.76855  -0.74185  -0.68175
 Alpha  occ. eigenvalues --   -0.63731  -0.59431  -0.58147  -0.57813  -0.55998
 Alpha  occ. eigenvalues --   -0.53655  -0.51194  -0.50215  -0.49634  -0.48774
 Alpha  occ. eigenvalues --   -0.48408  -0.47567  -0.46712  -0.46074  -0.44288
 Alpha  occ. eigenvalues --   -0.42974  -0.42604  -0.41732  -0.40467  -0.39280
 Alpha  occ. eigenvalues --   -0.37916  -0.31635
 Alpha virt. eigenvalues --    0.05994   0.10465   0.13286   0.13998   0.14228
 Alpha virt. eigenvalues --    0.15612   0.16651   0.17828   0.18477   0.19210
 Alpha virt. eigenvalues --    0.19963   0.20239   0.20735   0.22489   0.23190
 Alpha virt. eigenvalues --    0.23870   0.24047   0.25320   0.25974   0.27200
 Alpha virt. eigenvalues --    0.28075   0.29971   0.30315   0.30765   0.32300
 Alpha virt. eigenvalues --    0.33498   0.34080   0.35577   0.36068   0.38818
 Alpha virt. eigenvalues --    0.39507   0.41080   0.41396   0.44605   0.45820
 Alpha virt. eigenvalues --    0.47120   0.48369   0.50632   0.50992   0.53308
 Alpha virt. eigenvalues --    0.53721   0.55125   0.56849   0.58081   0.59046
 Alpha virt. eigenvalues --    0.60205   0.61870   0.62759   0.62984   0.64016
 Alpha virt. eigenvalues --    0.64330   0.65271   0.65906   0.66219   0.66797
 Alpha virt. eigenvalues --    0.67153   0.67296   0.67820   0.68666   0.68826
 Alpha virt. eigenvalues --    0.69576   0.69987   0.70840   0.71758   0.71930
 Alpha virt. eigenvalues --    0.72497   0.73685   0.75302   0.75969   0.76816
 Alpha virt. eigenvalues --    0.78295   0.79908   0.82395   0.83995   0.85863
 Alpha virt. eigenvalues --    0.88369   0.91408   0.94862   0.96860   1.00324
 Alpha virt. eigenvalues --    1.03655   1.05273   1.06320   1.07639   1.10602
 Alpha virt. eigenvalues --    1.14333   1.15011   1.19282   1.22579   1.24179
 Alpha virt. eigenvalues --    1.25479   1.29550   1.32586   1.33703   1.37256
 Alpha virt. eigenvalues --    1.39107   1.40728   1.42154   1.45421   1.47004
 Alpha virt. eigenvalues --    1.49040   1.49199   1.50846   1.51760   1.52553
 Alpha virt. eigenvalues --    1.52928   1.54421   1.57030   1.58001   1.58795
 Alpha virt. eigenvalues --    1.58868   1.59703   1.61376   1.63116   1.63602
 Alpha virt. eigenvalues --    1.64058   1.65226   1.65782   1.66881   1.68735
 Alpha virt. eigenvalues --    1.69344   1.69526   1.70733   1.72003   1.72352
 Alpha virt. eigenvalues --    1.73312   1.74581   1.75749   1.77436   1.80085
 Alpha virt. eigenvalues --    1.81707   1.82170   1.82736   1.84514   1.84801
 Alpha virt. eigenvalues --    1.86027   1.87106   1.87462   1.89736   1.89949
 Alpha virt. eigenvalues --    1.91080   1.93196   1.94288   1.95066   1.97152
 Alpha virt. eigenvalues --    1.98882   1.98944   2.01914   2.05079   2.06302
 Alpha virt. eigenvalues --    2.07320   2.10270   2.11708   2.13434   2.15013
 Alpha virt. eigenvalues --    2.16903   2.17804   2.18904   2.21676   2.25167
 Alpha virt. eigenvalues --    2.26491   2.28393   2.28573   2.29785   2.31511
 Alpha virt. eigenvalues --    2.33538   2.35767   2.36496   2.38259   2.38967
 Alpha virt. eigenvalues --    2.40278   2.42112   2.44544   2.44794   2.45851
 Alpha virt. eigenvalues --    2.47606   2.48984   2.49793   2.51081   2.52544
 Alpha virt. eigenvalues --    2.56410   2.57168   2.59635   2.60451   2.61967
 Alpha virt. eigenvalues --    2.62265   2.64033   2.65568   2.68298   2.68563
 Alpha virt. eigenvalues --    2.69833   2.72387   2.73568   2.74880   2.78554
 Alpha virt. eigenvalues --    2.81576   2.82418   2.83427   2.85543   2.86196
 Alpha virt. eigenvalues --    2.87491   2.88177   2.90586   2.95448   2.96213
 Alpha virt. eigenvalues --    2.98308   3.00065   3.01164   3.05997   3.09373
 Alpha virt. eigenvalues --    3.09899   3.12730   3.19188   3.20804   3.26189
 Alpha virt. eigenvalues --    3.30102   3.33979   3.36925   3.41225   3.42553
 Alpha virt. eigenvalues --    3.46184   3.47162   3.49227   3.50002   3.51494
 Alpha virt. eigenvalues --    3.52766   3.53263   3.54432   3.55893   3.57513
 Alpha virt. eigenvalues --    3.59253   3.61499   3.62434   3.66876   3.72448
 Alpha virt. eigenvalues --    3.76569   3.85252   3.89760   3.93015   3.96395
 Alpha virt. eigenvalues --    3.97709   4.01139   4.01657   4.05786   4.13875
 Alpha virt. eigenvalues --    4.20862   4.29891   4.38970   4.71198   4.79318
 Alpha virt. eigenvalues --    5.27519   6.38100   9.21899   9.25913   9.28442
 Alpha virt. eigenvalues --    9.33708   9.38662   9.42736   9.52368   9.55106
 Alpha virt. eigenvalues --    9.63877   9.68616   9.69670   9.71166   9.72199
 Alpha virt. eigenvalues --    9.72694   9.74249   9.74549   9.76165   9.77241
 Alpha virt. eigenvalues --    9.77731   9.78598   9.81790   9.83602   9.85489
 Alpha virt. eigenvalues --    9.86385   9.96240   9.99160  10.06027  10.22556
 Alpha virt. eigenvalues --   10.23249  10.23968  10.26217  10.27203  10.27567
 Alpha virt. eigenvalues --   10.29042  10.29874  10.31590  10.31773  10.33870
 Alpha virt. eigenvalues --   10.34303  10.36289  10.39187  10.40396  10.43153
 Alpha virt. eigenvalues --   10.44606  10.50221  10.52065  10.54326  10.54779
 Alpha virt. eigenvalues --   10.56270  10.58052  10.58546  10.63685  10.66093
 Alpha virt. eigenvalues --   10.71826  10.85474  11.00231  18.24331  19.26879
 Alpha virt. eigenvalues --   19.32718  19.69374  24.41763  24.48254  24.48568
 Alpha virt. eigenvalues --   24.54288  24.55550  24.62780  24.80187  24.82831
 Alpha virt. eigenvalues --   24.93476  25.00141  46.90973  47.05325  47.07195
 Alpha virt. eigenvalues --   47.07465  47.08282  47.09260  47.09553  47.09785
 Alpha virt. eigenvalues --   47.10181  47.11119  47.12845  47.13992  47.14616
 Alpha virt. eigenvalues --   47.14810  47.17366  47.18791  47.19678  47.20771
 Alpha virt. eigenvalues --   47.23012  47.24857  47.25413  47.27686  47.28335
 Alpha virt. eigenvalues --   47.29244  47.30114  47.31314  47.35779  47.38469
 Alpha virt. eigenvalues --   47.45840  47.48043  48.74506  55.47076  55.48599
 Alpha virt. eigenvalues --   55.49968  55.51509  55.53490  55.57092  55.57992
 Alpha virt. eigenvalues --   55.59562  55.60824  55.61545  55.62704  55.64801
 Alpha virt. eigenvalues --   55.65258  55.66482  55.68186  55.76786  62.33813
 Alpha virt. eigenvalues --   62.39279  62.39804  62.44865  62.46246  62.52562
 Alpha virt. eigenvalues --   62.68527  62.70657  62.80680  62.86601  93.97707
 Alpha virt. eigenvalues --   94.01463  94.23466 124.63693 149.03581 149.08338
 Alpha virt. eigenvalues --  149.09015 149.13772 149.15128 149.20725 149.35467
 Alpha virt. eigenvalues --  149.37617 149.46344 149.51872 233.57549 233.58905
 Alpha virt. eigenvalues --  233.60289 233.61752 233.63326 233.66980 233.67772
 Alpha virt. eigenvalues --  233.69191 233.70206 233.71034 233.72148 233.74031
 Alpha virt. eigenvalues --  233.74418 233.75551 233.76908 233.84832 297.41057
 Alpha virt. eigenvalues --  402.32299 402.36490 402.37154 402.41716 402.42992
 Alpha virt. eigenvalues --  402.47955 402.61223 402.63730 402.70907 402.76048
 Alpha virt. eigenvalues --  789.23044 789.24313 789.25634 789.27019 789.28234
 Alpha virt. eigenvalues --  789.31965 789.32690 789.34030 789.34946 789.35755
 Alpha virt. eigenvalues --  789.36804 789.38480 789.38902 789.39925 789.41056
 Alpha virt. eigenvalues --  789.48601 794.175331496.815931496.850381496.85784
 Alpha virt. eigenvalues -- 1496.897661496.910151496.952591497.067151497.09308
 Alpha virt. eigenvalues -- 1497.151721497.197452505.246592505.258592505.27123
 Alpha virt. eigenvalues -- 2505.284522505.292942505.331002505.337542505.34998
 Alpha virt. eigenvalues -- 2505.358532505.366312505.376102505.390862505.39543
 Alpha virt. eigenvalues -- 2505.404642505.414482505.487162893.480097970.88381
 Alpha virt. eigenvalues -- 7970.908347970.918467970.949087970.961797970.99623
 Alpha virt. eigenvalues -- 7971.090437971.113447971.161527971.200288146.02328
 Alpha virt. eigenvalues -- 8146.034098146.046778146.058918146.063088146.10201
 Alpha virt. eigenvalues -- 8146.108418146.120358146.128398146.135428146.14453
 Alpha virt. eigenvalues -- 8146.156828146.163038146.169748146.178358146.24884
 Alpha virt. eigenvalues -- **************************************************
 Alpha virt. eigenvalues -- **************************************************
 Alpha virt. eigenvalues -- **************************************************
 Alpha virt. eigenvalues -- **************************************************
 Alpha virt. eigenvalues -- ******************************
          Condensed to atoms (all electrons):
 Mulliken charges:
               1
     1  C   -0.270440
     2  C   -0.210014
     3  C   -0.270219
     4  C   -0.174851
     5  C   -0.200304
     6  C   -0.198171
     7  C   -0.254380
     8  C   -0.262736
     9  C    0.304897
    10  O   -0.345540
    11  C   -0.210030
    12  H    0.123521
    13  H    0.126276
    14  H    0.116163
    15  H    0.124876
    16  H    0.126093
    17  H    0.126302
    18  H    0.113994
    19  H    0.129199
    20  H    0.131520
    21  H    0.140715
    22  H    0.145585
    23  H    0.116952
    24  H    0.123719
    25  H    0.137630
    26  H    0.157881
    27  H    0.151361
 Sum of Mulliken charges =  -0.00000
 Mulliken charges with hydrogens summed into heavy atoms:
               1
     1  C    0.095520
     2  C   -0.210014
     3  C    0.107052
     4  C   -0.060857
     5  C    0.060414
     6  C    0.088130
     7  C   -0.254380
     8  C    0.115565
     9  C    0.304897
    10  O   -0.345540
    11  C    0.099213
 Electronic spatial extent (au):  <R**2>=           1462.4590
 Charge=              0.0000 electrons
 Dipole moment (field-independent basis, Debye):
    X=             -2.9608    Y=              0.9909    Z=             -0.1334  Tot=              3.1250
 Unable to Open any file for archive entry.
 1\1\GINC-BP1-COMPUTE081\SP\RwB97XD\Gen\C10H16O1\MX23826\21-Feb-2025\0\
 \#T nmr(giao,spinspin,mixed) wB97XD/6-311g(d,p) maxdisk=50GB\\\0,1\C,0
 ,-1.208881,-0.431355,-1.605909\C,0,-0.733601,-0.25412,-0.165577\C,0,-1
 .537225,-1.219102,0.710252\C,0,-0.765741,1.208652,0.331944\C,0,0.25786
 4,1.903591,-0.575345\C,0,1.354432,0.834136,-0.731455\C,0,0.795716,-0.3
 94443,0.03389\C,0,1.46495,-1.708802,-0.309459\C,0,0.949128,0.047325,1.
 475833\O,0,1.780716,-0.331901,2.270599\C,0,-0.107977,1.103361,1.709234
 \H,0,-2.267548,-0.186876,-1.66896\H,0,-1.082283,-1.467128,-1.91264\H,0
 ,-0.67171,0.196122,-2.307393\H,0,-2.562209,-0.867098,0.810332\H,0,-1.1
 08233,-1.329707,1.702589\H,0,-1.563618,-2.204696,0.250435\H,0,-1.74617
 4,1.681778,0.342075\H,0,0.637942,2.816194,-0.116774\H,0,-0.181141,2.17
 6571,-1.533628\H,0,1.527261,0.568112,-1.773385\H,0,2.308736,1.151645,-
 0.309018\H,0,1.402322,-1.904466,-1.377292\H,0,0.993181,-2.526701,0.229
 614\H,0,2.513388,-1.673528,-0.019458\H,0,-0.797095,0.778713,2.488886\H
 ,0,0.347802,2.03372,2.050609\\Version=ES64L-G16RevC.01\State=1-A\HF=-4
 65.9396741\RMSD=9.404e-09\Dipole=-0.8184754,0.3680457,-0.8403928\Quadr
 upole=-0.4885252,2.4392842,-1.950759,1.1390644,-4.2164797,1.5729134\PG
 =C01 [X(C10H16O1)]\\@
 The archive entry for this job was punched.


 IT IS A PROFOUNDLY ERRONEOUS TRUISM ... THAT WE SHOULD CULTIVATE
 THE HABIT OF THINKING OF WHAT WE ARE DOING.
 THE PRECISE OPPOSITE IS THE CASE.
 CIVILIZATION ADVANCES BY EXTENDING THE NUMBER OF IMPORTANT OPERATIONS
 WHICH WE CAN PERFORM WITHOUT THINKING ABOUT THEM.

                                    -- ALFRED NORTH WHITEHEAD
 Job cpu time:       0 days  8 hours  5 minutes 56.8 seconds.
 Elapsed time:       0 days  1 hours  1 minutes  9.7 seconds.
 File lengths (MBytes):  RWF=    355 Int=      0 D2E=      0 Chk=     32 Scr=      1
 Normal termination of Gaussian 16 at Fri Feb 21 13:07:18 2025.
 Link1:  Proceeding to internal job step number  2.
 ----------------------------------------------------------------------
 #T Geom=AllCheck Guess=TCheck SCRF=Check GenChk RwB97XD/ChkBas NMR=Rea
 dFC IOp(3/6=22)
 ----------------------------------------------------------------------
 Structure from the checkpoint file:  "camphor_NMR.chk"

 

 Charge =  0 Multiplicity = 1
 Z-Matrix found in chk file.
 C,0,-1.208881,-0.431355,-1.605909
 C,0,-0.733601,-0.25412,-0.165577
 C,0,-1.537225,-1.219102,0.710252
 C,0,-0.765741,1.208652,0.331944
 C,0,0.257864,1.903591,-0.575345
 C,0,1.354432,0.834136,-0.731455
 C,0,0.795716,-0.394443,0.03389
 C,0,1.46495,-1.708802,-0.309459
 C,0,0.949128,0.047325,1.475833
 O,0,1.780716,-0.331901,2.270599
 C,0,-0.107977,1.103361,1.709234
 H,0,-2.267548,-0.186876,-1.66896
 H,0,-1.082283,-1.467128,-1.91264
 H,0,-0.67171,0.196122,-2.307393
 H,0,-2.562209,-0.867098,0.810332
 H,0,-1.108233,-1.329707,1.702589
 H,0,-1.563618,-2.204696,0.250435
 H,0,-1.746174,1.681778,0.342075
 H,0,0.637942,2.816194,-0.116774
 H,0,-0.181141,2.176571,-1.533628
 H,0,1.527261,0.568112,-1.773385
 H,0,2.308736,1.151645,-0.309018
 H,0,1.402322,-1.904466,-1.377292
 H,0,0.993181,-2.526701,0.229614
 H,0,2.513388,-1.673528,-0.019458
 H,0,-0.797095,0.778713,2.488886
 H,0,0.347802,2.03372,2.050609
 Recover connectivity data from disk.
                    Distance matrix (angstroms):
                    1          2          3          4          5
     1  C    0.000000
     2  C    1.527043   0.000000
     3  C    2.468392   1.531038   0.000000
     4  C    2.577066   1.545400   2.575324   0.000000
     5  C    2.943701   2.409695   3.824437   1.534236   0.000000
     6  C    2.989433   2.421653   3.828314   2.401294   1.539664
     7  C    2.590118   1.548641   2.565179   2.257631   2.437501
     8  C    3.234505   2.640157   3.208219   3.728125   3.818001
     9  C    3.792528   2.369952   2.893424   2.365996   2.851473
    10  O    4.896417   3.501827   3.772339   3.551919   3.926309
    11  C    3.815431   2.397723   2.904230   1.529924   2.448164
    12  H    1.088357   2.148878   2.694348   2.864706   3.455973
    13  H    1.087629   2.155272   2.673584   3.506873   3.866018
    14  H    1.083679   2.189503   3.443567   2.828455   2.603757
    15  H    2.803496   2.161469   1.088354   2.786555   4.189228
    16  H    3.429770   2.187986   1.086738   2.905036   4.184426
    17  H    2.591638   2.160264   1.087899   3.506308   4.569216
    18  H    2.923809   2.242926   2.931607   1.088669   2.215181
    19  H    4.021797   3.363085   4.658212   2.180795   1.089766
    20  H    2.804060   2.843419   4.290053   2.181509   1.088830
    21  H    2.917783   2.893546   4.330550   3.178138   2.197765
    22  H    4.069575   3.354484   4.631497   3.141097   2.200552
    23  H    3.006776   2.958726   3.669946   4.160948   4.056378
    24  H    3.550873   2.881419   2.888561   4.130029   4.562471
    25  H    4.232624   3.546690   4.140827   4.379855   4.265229
    26  H    4.289659   2.849026   2.775355   2.199598   3.430423
    27  H    4.676535   3.363796   3.991332   2.207833   2.630714
                    6          7          8          9         10
     6  C    0.000000
     7  C    1.551555   0.000000
     8  C    2.580083   1.514365   0.000000
     9  C    2.378122   1.515881   2.556819   0.000000
    10  O    3.248644   2.444791   2.941473   1.211199   0.000000
    11  C    2.857986   2.422159   3.802300   1.512336   2.437677
    12  H    3.878159   3.510893   4.253944   4.504617   5.650628
    13  H    3.553673   2.909727   3.019436   4.231069   5.194708
    14  H    2.644975   2.825546   3.490815   4.118502   5.220269
    15  H    4.539976   3.478782   4.263849   3.688977   4.613005
    16  H    4.083076   2.698944   3.288361   2.486035   3.108742
    17  H    4.325925   2.981671   3.119554   3.589860   4.332781
    18  H    3.388912   3.296495   4.715066   3.349850   4.495894
    19  H    2.195392   3.218040   4.603983   3.209341   4.112905
    20  H    2.191711   3.165671   4.393669   3.855911   4.961195
    21  H    1.089154   2.174376   2.707637   3.341089   4.150671
    22  H    1.090853   2.190252   2.982303   2.500750   3.022274
    23  H    2.814132   2.153967   1.087416   3.486430   3.990395
    24  H    3.514169   2.150308   1.087255   2.860177   3.098867
    25  H    2.852805   2.142266   1.088378   2.764804   2.753386
    26  H    3.873337   3.152832   4.374393   2.147207   2.815355
    27  H    3.192520   3.188065   4.563377   2.153538   2.774491
                   11         12         13         14         15
    11  C    0.000000
    12  H    4.211965   0.000000
    13  H    4.546939   1.761612   0.000000
    14  H    4.156221   1.760961   1.758067   0.000000
    15  H    3.273223   2.587743   3.156706   3.797977   0.000000
    16  H    2.630661   3.743984   3.617933   4.312617   1.767534
    17  H    3.897464   2.872489   2.335505   3.619656   1.760635
    18  H    2.210742   2.794273   3.929389   3.222007   2.716974
    19  H    2.612374   4.457531   4.952894   3.657701   4.966602
    20  H    3.416619   3.155517   3.772565   2.182097   4.519685
    21  H    3.884473   3.870593   3.312297   2.293254   5.045710
    22  H    3.148996   4.958171   4.574777   3.713433   5.390211
    23  H    4.566691   4.062405   2.578977   3.095023   4.645357
    24  H    4.071753   4.439788   3.165359   4.077013   3.966398
    25  H    4.191783   5.271465   4.068856   4.344547   5.205820
    26  H    1.090017   4.514674   4.949603   4.833159   2.939705
    27  H    1.090798   5.060266   5.477994   4.838218   4.291992
                   16         17         18         19         20
    16  H    0.000000
    17  H    1.755486   0.000000
    18  H    3.365562   3.891838   0.000000
    19  H    4.852598   5.494638   2.679823   0.000000
    20  H    4.860719   4.928450   2.492471   1.757125   0.000000
    21  H    4.757094   4.619290   4.053492   2.930720   2.358657
    22  H    4.677536   5.154914   4.140925   2.366270   2.957977
    23  H    4.014835   3.396533   5.072514   4.945484   4.380258
    24  H    2.831676   2.577080   5.022749   5.365884   5.158374
    25  H    4.024897   4.120311   5.434395   4.866659   4.937252
    26  H    2.271674   3.807749   2.514970   3.605568   4.302793
    27  H    3.681548   4.985812   2.725378   2.322498   3.625871
                   21         22         23         24         25
    21  H    0.000000
    22  H    1.759427   0.000000
    23  H    2.507218   3.361935   0.000000
    24  H    3.724931   3.943481   1.771079   0.000000
    25  H    3.012251   2.847337   1.769608   1.760957   0.000000
    26  H    4.859417   4.196848   5.194633   4.385791   4.823336
    27  H    4.261697   3.192359   5.326521   4.952775   4.766406
                   26         27
    26  H    0.000000
    27  H    1.754400   0.000000
 Framework group  C1[X(C10H16O)]
 Deg. of freedom    75
                         Standard orientation:                         
 ---------------------------------------------------------------------
 Center     Atomic      Atomic             Coordinates (Angstroms)
 Number     Number       Type             X           Y           Z
 ---------------------------------------------------------------------
      1          6           0       -2.299297   -0.454669   -0.237828
      2          6           0       -0.932333   -0.219619    0.400937
      3          6           0       -0.886486   -1.018746    1.706070
      4          6           0       -0.566744    1.271966    0.573508
      5          6           0       -0.487526    1.776752   -0.873142
      6          6           0        0.142401    0.583693   -1.615009
      7          6           0        0.274240   -0.512290   -0.524705
      8          6           0        0.466681   -1.915301   -1.061203
      9          6           0        1.423572    0.020588    0.307743
     10          8           0        2.564654   -0.385326    0.320807
     11          6           0        0.876239    1.201998    1.077066
     12          1           0       -3.077617   -0.100245    0.435316
     13          1           0       -2.453104   -1.518786   -0.401943
     14          1           0       -2.413439    0.053081   -1.188365
     15          1           0       -1.522144   -0.548824    2.454152
     16          1           0        0.121093   -1.098613    2.105327
     17          1           0       -1.255567   -2.028129    1.537402
     18          1           0       -1.233129    1.849975    1.211503
     19          1           0        0.125789    2.674599   -0.945994
     20          1           0       -1.474184    2.021259   -1.263364
     21          1           0       -0.489062    0.219969   -2.424463
     22          1           0        1.117493    0.825588   -2.040030
     23          1           0       -0.346051   -2.185283   -1.731316
     24          1           0        0.505998   -2.631588   -0.244189
     25          1           0        1.406470   -1.973760   -1.607047
     26          1           0        0.946936    1.017181    2.148971
     27          1           0        1.458804    2.099950    0.866973
 ---------------------------------------------------------------------
 Rotational constants (GHZ):           1.4707464           1.1929736           1.1067164
   294 basis functions,   480 primitive gaussians,   305 cartesian basis functions
    42 alpha electrons       42 beta electrons
       nuclear repulsion energy       691.2208793098 Hartrees.
 NAtoms=   27 NActive=   27 NUniq=   27 SFac= 1.00D+00 NAtFMM=   60 NAOKFM=F Big=F
 Nuclear repulsion after empirical dispersion term =      691.1962253918 Hartrees.
 Initial guess from the checkpoint file:  "camphor_NMR.chk"
 B after Tr=    -0.000000   -0.000000   -0.000000
         Rot=    1.000000    0.000000   -0.000000   -0.000000 Ang=   0.00 deg.
 SCF Done:  E(RwB97XD) =  -465.913123288     A.U. after   10 cycles
            NFock= 10  Conv=0.28D-08     -V/T= 2.0040
 DoSCS=F DFT=T ScalE2(SS,OS)=  1.000000  1.000000
 NROrb=    294 NOA=    42 NOB=    42 NVA=   252 NVB=   252
          IDoAtm=111111111111111111111111111
          Differentiating once with respect to magnetic field using GIAOs.
          Differentiating once with respect to nuclear magnetic moments.
          Differentiating once with respect to Fermi-contact and electric field gradient.
          Electric field/nuclear overlap derivatives assumed to be zero.
 FoFCou: FMM=F IPFlag=           0 FMFlag=      100000 FMFlg1=           0
         NFxFlg=           0 DoJE=F BraDBF=F KetDBF=T FulRan=T
         wScrn=  0.000000 ICntrl=      6100 IOpCl=  0 I1Cent=           7 NGrid=          27
         NMat0=    1 NMatS0=      1 NMatT0=    0 NMatD0=    1 NMtDS0=    0 NMtDT0=    0
 Symmetry not used in FoFCou.
 FoFJK:  IHMeth= 1 ICntrl=    6127 DoSepK=T KAlg= 0 I1Cent=           0 FoldK=F
 IRaf=         1 NMat=       1 IRICut=       1 DoRegI=T DoRafI=F ISym2E= 0 IDoP0=0 IntGTp=1.
 Calculating GIAO nuclear magnetic shielding tensors.
 SCF GIAO Magnetic shielding tensor (ppm):
      1  C    Isotropic =   169.1586   Anisotropy =    33.5035
   XX=   182.4733   YX=     3.6074   ZX=    18.5215
   XY=     4.7189   YY=   161.9748   ZY=    -0.4669
   XZ=    12.3539   YZ=     1.2531   ZZ=   163.0277
   Eigenvalues:   154.1325   161.8491   191.4943
      2  C    Isotropic =   141.3195   Anisotropy =    19.2464
   XX=   135.2326   YX=    -4.8028   ZX=    -7.0031
   XY=     6.1218   YY=   148.1593   ZY=     7.9735
   XZ=    -2.8233   YZ=     9.5102   ZZ=   140.5666
   Eigenvalues:   130.4633   139.3447   154.1504
      3  C    Isotropic =   167.5032   Anisotropy =    35.7095
   XX=   158.6124   YX=     3.1829   ZX=     2.6196
   XY=     0.1040   YY=   160.3871   ZY=   -14.5007
   XZ=     7.8192   YZ=   -15.3387   ZZ=   183.5100
   Eigenvalues:   151.0792   160.1208   191.3095
      4  C    Isotropic =   143.4976   Anisotropy =    34.3414
   XX=   125.4745   YX=     9.1257   ZX=    -4.4845
   XY=    -2.5502   YY=   163.2865   ZY=    10.3332
   XZ=   -11.3384   YZ=     7.1514   ZZ=   141.7319
   Eigenvalues:   121.2572   142.8438   166.3919
      5  C    Isotropic =   159.9873   Anisotropy =    25.0698
   XX=   147.3178   YX=    -0.5057   ZX=    -5.2807
   XY=     3.3562   YY=   157.8153   ZY=    -0.7050
   XZ=     1.1793   YZ=   -10.5023   ZZ=   174.8288
   Eigenvalues:   147.0600   156.2014   176.7005
      6  C    Isotropic =   156.8174   Anisotropy =    39.4490
   XX=   136.0824   YX=   -10.3805   ZX=    -3.7691
   XY=   -11.2863   YY=   174.0622   ZY=   -12.3052
   XZ=    -6.5923   YZ=   -14.2365   ZZ=   160.3075
   Eigenvalues:   130.5785   156.7570   183.1167
      7  C    Isotropic =   129.2292   Anisotropy =    20.8826
   XX=   126.5556   YX=    12.8580   ZX=    -8.3119
   XY=     5.8869   YY=   127.0221   ZY=     0.5190
   XZ=   -14.0334   YZ=     3.9863   ZZ=   134.1098
   Eigenvalues:   112.7654   131.7711   143.1509
      8  C    Isotropic =   178.0009   Anisotropy =    21.8751
   XX=   169.8032   YX=    -1.8193   ZX=     4.8005
   XY=    -3.4967   YY=   192.0668   ZY=     0.7840
   XZ=     3.1415   YZ=     4.1919   ZZ=   172.1329
   Eigenvalues:   166.3207   175.0978   192.5843
      9  C    Isotropic =   -33.4174   Anisotropy =   177.0223
   XX=   -58.7000   YX=    20.1587   ZX=   -28.0982
   XY=    22.9867   YY=   -44.6949   ZY=   -95.9861
   XZ=   -23.1763   YZ=   -93.1584   ZZ=     3.1426
   Eigenvalues:  -118.3562   -66.4935    84.5974
     10  O    Isotropic =  -285.5728   Anisotropy =   998.9792
   XX=  -737.5281   YX=   247.8359   ZX=  -139.9777
   XY=   268.2931   YY=  -172.5844   ZY=  -358.8504
   XZ=  -164.4751   YZ=  -348.3842   ZZ=    53.3942
   Eigenvalues:  -837.9434  -399.1883   380.4134
     11  C    Isotropic =   144.5491   Anisotropy =    22.4254
   XX=   146.7098   YX=   -11.8375   ZX=    12.6870
   XY=    -5.6536   YY=   152.3260   ZY=    -2.2769
   XZ=     0.1979   YZ=     0.9246   ZZ=   134.6115
   Eigenvalues:   131.3498   142.7982   159.4993
     12  H    Isotropic =    31.2368   Anisotropy =    10.0205
   XX=    37.0577   YX=    -1.4063   ZX=    -2.8613
   XY=    -0.9493   YY=    27.6855   ZY=     0.7210
   XZ=    -2.0562   YZ=     0.6660   ZZ=    28.9671
   Eigenvalues:    27.3806    28.4126    37.9171
     13  H    Isotropic =    31.3496   Anisotropy =     9.3627
   XX=    32.0394   YX=     3.9256   ZX=     1.2316
   XY=     3.3706   YY=    34.1923   ZY=     1.9291
   XZ=     1.3209   YZ=     2.5582   ZZ=    27.8170
   Eigenvalues:    27.1022    29.3552    37.5914
     14  H    Isotropic =    31.0629   Anisotropy =     8.6824
   XX=    32.6220   YX=     0.1577   ZX=     4.3819
   XY=     1.0265   YY=    28.0282   ZY=    -2.6417
   XZ=     3.5756   YZ=    -2.9348   ZZ=    32.5385
   Eigenvalues:    25.7738    30.5637    36.8512
     15  H    Isotropic =    31.1463   Anisotropy =    10.4376
   XX=    29.0844   YX=    -0.6829   ZX=    -3.6181
   XY=     0.2657   YY=    28.2522   ZY=    -0.5752
   XZ=    -4.8794   YZ=     0.1646   ZZ=    36.1023
   Eigenvalues:    27.0210    28.3133    38.1047
     16  H    Isotropic =    31.4808   Anisotropy =     9.2447
   XX=    31.9253   YX=    -0.4689   ZX=     3.5155
   XY=    -0.3288   YY=    29.0853   ZY=    -4.1144
   XZ=     3.6728   YZ=    -3.5480   ZZ=    33.4318
   Eigenvalues:    26.3649    30.4336    37.6439
     17  H    Isotropic =    31.3476   Anisotropy =     9.1967
   XX=    28.2425   YX=     2.0519   ZX=    -0.5162
   XY=     2.8288   YY=    35.6252   ZY=    -2.2104
   XZ=    -1.2778   YZ=    -3.2225   ZZ=    30.1750
   Eigenvalues:    27.5054    29.0586    37.4787
     18  H    Isotropic =    30.2677   Anisotropy =     9.4579
   XX=    28.9757   YX=    -2.2162   ZX=    -2.2030
   XY=    -3.2847   YY=    30.8593   ZY=     3.6452
   XZ=    -3.1572   YZ=     3.7913   ZZ=    30.9682
   Eigenvalues:    27.0093    27.2209    36.5730
     19  H    Isotropic =    30.8545   Anisotropy =    11.3250
   XX=    27.7046   YX=     3.5534   ZX=    -1.0042
   XY=     2.8865   YY=    36.8355   ZY=    -2.0424
   XZ=    -0.7130   YZ=    -2.4157   ZZ=    28.0234
   Eigenvalues:    26.6589    27.5000    38.4045
     20  H    Isotropic =    30.1825   Anisotropy =     9.9676
   XX=    31.3882   YX=    -3.3560   ZX=     2.9281
   XY=    -3.3101   YY=    30.4749   ZY=    -2.6815
   XZ=     4.1293   YZ=    -3.0403   ZZ=    28.6843
   Eigenvalues:    26.1389    27.5810    36.8275
     21  H    Isotropic =    30.5317   Anisotropy =     8.3238
   XX=    27.7722   YX=    -0.3830   ZX=     1.8147
   XY=    -0.5969   YY=    28.4019   ZY=     0.8869
   XZ=     2.4665   YZ=     1.1872   ZZ=    35.4209
   Eigenvalues:    26.8459    28.6683    36.0809
     22  H    Isotropic =    30.7795   Anisotropy =    10.2100
   XX=    31.8782   YX=     1.0019   ZX=    -5.8263
   XY=     0.9432   YY=    28.9115   ZY=    -1.5955
   XZ=    -5.0928   YZ=    -1.8120   ZZ=    31.5488
   Eigenvalues:    26.1305    28.6219    37.5862
     23  H    Isotropic =    31.6213   Anisotropy =     8.8594
   XX=    31.0868   YX=     1.0247   ZX=     2.6996
   XY=     1.1696   YY=    32.1128   ZY=     4.4798
   XZ=     2.8504   YZ=     4.4545   ZZ=    31.6643
   Eigenvalues:    26.9473    30.3890    37.5276
     24  H    Isotropic =    31.4316   Anisotropy =     9.9225
   XX=    27.4221   YX=    -2.2504   ZX=    -0.5318
   XY=    -2.3783   YY=    36.5146   ZY=    -3.0476
   XZ=    -1.0485   YZ=    -2.8975   ZZ=    30.3581
   Eigenvalues:    26.2452    30.0030    38.0466
     25  H    Isotropic =    30.6732   Anisotropy =    10.6164
   XX=    33.2453   YX=    -2.4900   ZX=    -4.0575
   XY=    -3.2227   YY=    29.4415   ZY=     2.1732
   XZ=    -4.5614   YZ=     2.9302   ZZ=    29.3329
   Eigenvalues:    26.3366    27.9322    37.7508
     26  H    Isotropic =    29.7588   Anisotropy =     9.1218
   XX=    28.9326   YX=     1.2998   ZX=     3.8950
   XY=     2.0809   YY=    26.7097   ZY=    -0.1635
   XZ=     3.5727   YZ=     0.8935   ZZ=    33.6341
   Eigenvalues:    25.4164    28.0200    35.8400
     27  H    Isotropic =    30.3327   Anisotropy =     9.0079
   XX=    31.1835   YX=     3.6350   ZX=     1.8967
   XY=     4.8141   YY=    32.2435   ZY=     0.9835
   XZ=     2.2537   YZ=     0.0930   ZZ=    27.5710
   Eigenvalues:    26.1484    28.5116    36.3380
 Fermi Contact contribution taken from checkpoint file:
 "camphor_NMR.chk"
 There are a total of      604946 grid points.
 ElSum from          density=      168.0001825833
 Fermi Contact (FC) contribution to K (Hz):
                1             2             3             4             5 
      1  0.000000D+00
      2  0.176481D+02  0.000000D+00
      3  0.153024D+01  0.169153D+02  0.000000D+00
      4  0.893496D-01  0.147295D+02  0.310561D+00  0.000000D+00
      5  0.889125D+00  0.803123D+00  0.131579D+01  0.149038D+02  0.000000D+00
      6  0.895467D+00  0.654181D+00  0.128128D+01 -0.246618D+00  0.145523D+02
      7  0.207883D-01  0.160023D+02  0.523487D+00  0.225362D+01  0.613025D-01
      8  0.309189D+00  0.508083D+00  0.413768D+00  0.157623D+01  0.149746D+01
      9  0.158783D+01  0.196446D+01  0.718608D+00  0.580323D+00  0.233715D+00
     10  0.133400D+00  0.422303D+00 -0.755691D-02  0.582736D+00 -0.117360D+00
     11  0.719170D+00 -0.157222D+00  0.875095D+00  0.154820D+02 -0.220294D+00
     12  0.144405D+02 -0.490723D+00  0.280464D+00  0.302623D+00 -0.232891D-01
     13  0.145062D+02 -0.530562D+00  0.379108D+00  0.101551D+01  0.757211D-01
     14  0.143246D+02 -0.454212D+00  0.123283D+01  0.161531D+00  0.471941D-01
     15  0.126851D+00 -0.478626D+00  0.144678D+02  0.416213D+00 -0.288465D-01
     16  0.115371D+01 -0.427100D+00  0.143101D+02  0.430670D-01 -0.417143D-01
     17  0.548165D+00 -0.499404D+00  0.145432D+02  0.933721D+00  0.606638D-01
     18  0.176261D+00 -0.903745D-01  0.129182D+00  0.163839D+02 -0.155065D-01
     19  0.416089D-01  0.789098D+00  0.563599D-01 -0.356128D+00  0.152264D+02
     20  0.697034D-01  0.363138D-01 -0.360451D-01 -0.377445D+00  0.149957D+02
     21  0.379729D-01  0.371512D-01 -0.323382D-01  0.194856D+00 -0.425955D+00
     22  0.149114D-01  0.758134D+00  0.254842D-01  0.195909D+00 -0.242596D+00
     23  0.294640D-01  0.105504D+00 -0.132012D-01 -0.315214D-01 -0.726499D-02
     24 -0.152935D-01  0.179427D+00  0.277325D-01 -0.410605D-01  0.118700D+00
     25  0.522659D-02  0.896341D+00 -0.112322D-01 -0.368641D-01 -0.256764D-01
     26 -0.332821D-01  0.718852D-01  0.114895D+00 -0.294873D+00  0.109347D+01
     27  0.117917D+00  0.104950D+01  0.681081D-01 -0.286606D+00  0.714844D+00
                6             7             8             9            10 
      6  0.000000D+00
      7  0.133456D+02  0.000000D+00
      8  0.916072D+00  0.189483D+02  0.000000D+00
      9 -0.125191D+01  0.201125D+02  0.253363D-01  0.000000D+00
     10  0.903873D+00  0.173512D+01  0.769396D+00 -0.144772D+02  0.000000D+00
     11  0.184034D-01  0.616278D+01  0.546510D+00  0.179516D+02  0.228631D+01
     12  0.777022D-01  0.899495D+00 -0.357939D-02  0.543072D-01  0.604467D-01
     13 -0.224959D-01  0.152423D+00  0.256332D-01 -0.476706D-01  0.398016D-02
     14  0.316163D-01  0.200050D+00 -0.108134D-01 -0.401034D-01 -0.810336D-04
     15  0.417786D-01  0.872737D+00  0.157537D-01  0.428459D-02  0.222395D-02
     16 -0.960322D-02  0.381327D+00  0.267779D-02 -0.247312D-01  0.264117D-01
     17 -0.100849D-01  0.438286D-01  0.257902D-01 -0.205840D-01  0.165562D-02
     18  0.835529D+00  0.529339D+00  0.807887D-01  0.105151D+01  0.676488D-01
     19 -0.252519D+00  0.248036D+00 -0.804238D-02 -0.420602D-01  0.825685D-03
     20 -0.427756D+00  0.122807D+00 -0.153482D-01 -0.924213D-01  0.122948D-01
     21  0.154719D+02 -0.471999D+00  0.432991D+00  0.854242D+00  0.156080D+00
     22  0.153381D+02 -0.295354D+00  0.334318D-01  0.613441D+00  0.219907D-01
     23  0.389411D+00 -0.494837D+00  0.144954D+02  0.103990D+01  0.545652D-01
     24  0.112350D+01 -0.541473D+00  0.144472D+02  0.172185D+00 -0.435528D-02
     25  0.151337D+00 -0.655899D+00  0.149166D+02  0.251300D+00  0.524884D-01
     26 -0.951385D-01 -0.181135D-01  0.433092D-01 -0.835111D+00  0.427473D+00
     27 -0.654666D-02  0.130344D+00 -0.165594D-01 -0.634871D+00  0.347157D+00
               11            12            13            14            15 
     11  0.000000D+00
     12 -0.433156D-02  0.000000D+00
     13  0.981479D-01 -0.420406D+00  0.000000D+00
     14 -0.257750D-01 -0.396945D+00 -0.392514D+00  0.000000D+00
     15 -0.224836D-01 -0.518799D-03 -0.832840D-02 -0.665598D-02  0.000000D+00
     16  0.817038D-01  0.113173D-01  0.698371D-02  0.122999D+00 -0.392024D+00
     17  0.914767D-01 -0.428701D-02 -0.263473D-02  0.253265D-01 -0.419148D+00
     18 -0.813947D-01 -0.488952D-02 -0.114446D-01 -0.464653D-02 -0.534274D-02
     19  0.696166D+00  0.801687D-03 -0.105971D-02  0.323256D-02  0.510703D-02
     20  0.112199D+01  0.499740D-03  0.509212D-02 -0.399063D-02  0.361867D-03
     21 -0.827320D-01  0.241278D-02  0.407875D-03 -0.240921D-02 -0.994038D-03
     22 -0.179954D-01 -0.934235D-03  0.118299D-02  0.157581D-02  0.234303D-01
     23  0.105718D+00  0.201468D-02  0.273234D-02  0.578788D-03  0.322461D-02
     24 -0.143005D-01  0.180115D-02  0.795949D-03  0.141195D-02  0.119166D-02
     25 -0.264688D-01 -0.206186D-02  0.112004D-02  0.350706D-03 -0.144386D-02
     26  0.148656D+02  0.145417D-03 -0.647655D-03  0.238958D-03 -0.159558D-03
     27  0.152176D+02 -0.348275D-02  0.218114D-01 -0.766071D-04 -0.255443D-03
               16            17            18            19            20 
     16  0.000000D+00
     17 -0.413998D+00  0.000000D+00
     18 -0.297422D-02 -0.103860D-01  0.000000D+00
     19 -0.557900D-03  0.238202D-01  0.217746D-01  0.000000D+00
     20  0.200789D-03  0.414775D-04  0.138827D+00 -0.398014D+00  0.000000D+00
     21  0.602887D-03  0.806151D-03  0.157340D-01  0.116466D+00  0.368352D+00
     22  0.953187D-03  0.872802D-03 -0.101769D-01  0.311315D+00  0.150091D+00
     23  0.263867D-02  0.141068D-03 -0.871041D-03  0.487366D-02 -0.779463D-03
     24  0.857888D-03  0.234183D-02  0.212908D-02  0.104540D-01  0.176711D-02
     25  0.648615D-03  0.115442D-02  0.263483D-01  0.588551D-04  0.524586D-03
     26  0.164394D-01  0.163008D-01  0.157146D+00  0.165249D-01  0.813702D-01
     27  0.131602D-01  0.190757D-02  0.163676D-01 -0.815846D-02  0.118612D-01
               21            22            23            24            25 
     21  0.000000D+00
     22 -0.430286D+00  0.000000D+00
     23 -0.628083D-02 -0.708470D-02  0.000000D+00
     24  0.848132D-02 -0.170451D-01 -0.369684D+00  0.000000D+00
     25 -0.441050D-02 -0.474810D-02 -0.400508D+00 -0.436369D+00  0.000000D+00
     26 -0.330022D-01 -0.204989D-03  0.566892D-02 -0.715323D-03  0.163132D-02
     27  0.399309D-02  0.343330D-02  0.465096D-02  0.471318D-02  0.408098D-03
               26            27 
     26  0.000000D+00
     27 -0.601840D+00  0.000000D+00
 Fermi Contact (FC) contribution to J (Hz):
                1             2             3             4             5 
      1  0.000000D+00
      2  0.348289D+02  0.000000D+00
      3  0.301998D+01  0.333828D+02  0.000000D+00
      4  0.176334D+00  0.290691D+02  0.612901D+00  0.000000D+00
      5  0.175471D+01  0.158498D+01  0.259675D+01  0.294131D+02  0.000000D+00
      6  0.176723D+01  0.129104D+01  0.252863D+01 -0.486707D+00  0.287193D+02
      7  0.410262D-01  0.315809D+02  0.103311D+01  0.444758D+01  0.120982D+00
      8  0.610192D+00  0.100271D+01  0.816581D+00  0.311073D+01  0.295527D+01
      9  0.313361D+01  0.387691D+01  0.141819D+01  0.114528D+01  0.461243D+00
     10 -0.141962D+00 -0.449406D+00  0.804192D-02 -0.620137D+00  0.124892D+00
     11  0.141930D+01 -0.310281D+00  0.172702D+01  0.305542D+02 -0.434756D+00
     12  0.113313D+03 -0.385066D+01  0.220077D+01  0.237465D+01 -0.182748D+00
     13  0.113829D+03 -0.416327D+01  0.297483D+01  0.796861D+01  0.594176D+00
     14  0.112403D+03 -0.356416D+01  0.967389D+01  0.126752D+01  0.370327D+00
     15  0.995386D+00 -0.375573D+01  0.113527D+03  0.326598D+01 -0.226356D+00
     16  0.905303D+01 -0.335141D+01  0.112290D+03  0.337943D+00 -0.327328D+00
     17  0.430140D+01 -0.391878D+01  0.114119D+03  0.732682D+01  0.476023D+00
     18  0.138310D+01 -0.709160D+00  0.101368D+01  0.128563D+03 -0.121678D+00
     19  0.326501D+00  0.619197D+01  0.442250D+00 -0.279450D+01  0.119480D+03
     20  0.546956D+00  0.284951D+00 -0.282842D+00 -0.296177D+01  0.117670D+03
     21  0.297970D+00  0.291522D+00 -0.253754D+00  0.152901D+01 -0.334243D+01
     22  0.117008D+00  0.594901D+01  0.199972D+00  0.153728D+01 -0.190363D+01
     23  0.231201D+00  0.827883D+00 -0.103588D+00 -0.247345D+00 -0.570077D-01
     24 -0.120007D+00  0.140794D+01  0.217614D+00 -0.322198D+00  0.931426D+00
     25  0.410126D-01  0.703350D+01 -0.881376D-01 -0.289269D+00 -0.201480D+00
     26 -0.261161D+00  0.564076D+00  0.901566D+00 -0.231384D+01  0.858033D+01
     27  0.925285D+00  0.823530D+01  0.534438D+00 -0.224897D+01  0.560931D+01
                6             7             8             9            10 
      6  0.000000D+00
      7  0.263378D+02  0.000000D+00
      8  0.180789D+01  0.373949D+02  0.000000D+00
      9 -0.247067D+01  0.396926D+02  0.500018D-01  0.000000D+00
     10 -0.961884D+00 -0.184648D+01 -0.818776D+00  0.154063D+02  0.000000D+00
     11  0.363196D-01  0.121624D+02  0.107855D+01  0.354278D+02 -0.243305D+01
     12  0.609721D+00  0.705825D+01 -0.280872D-01  0.426143D+00 -0.255767D+00
     13 -0.176523D+00  0.119604D+01  0.201141D+00 -0.374066D+00 -0.168411D-01
     14  0.248090D+00  0.156977D+01 -0.848515D-01 -0.314687D+00  0.342875D-03
     15  0.327833D+00  0.684828D+01  0.123618D+00  0.336208D-01 -0.941015D-02
     16 -0.753555D-01  0.299224D+01  0.210124D-01 -0.194063D+00 -0.111755D+00
     17 -0.791353D-01  0.343919D+00  0.202373D+00 -0.161521D+00 -0.700537D-02
     18  0.655631D+01  0.415367D+01  0.633941D+00  0.825113D+01 -0.286241D+00
     19 -0.198149D+01  0.194631D+01 -0.631078D-01 -0.330042D+00 -0.349370D-02
     20 -0.335656D+01  0.963657D+00 -0.120436D+00 -0.725221D+00 -0.520225D-01
     21  0.121406D+03 -0.370373D+01  0.339764D+01  0.670315D+01 -0.660415D+00
     22  0.120356D+03 -0.231761D+01  0.262336D+00  0.481362D+01 -0.930487D-01
     23  0.305567D+01 -0.388294D+01  0.113744D+03  0.816002D+01 -0.230880D+00
     24  0.881597D+01 -0.424889D+01  0.113366D+03  0.135112D+01  0.184284D-01
     25  0.118753D+01 -0.514677D+01  0.117049D+03  0.197193D+01 -0.222093D+00
     26 -0.746542D+00 -0.142135D+00  0.339843D+00 -0.655304D+01 -0.180876D+01
     27 -0.513710D-01  0.102279D+01 -0.129940D+00 -0.498177D+01 -0.146892D+01
               11            12            13            14            15 
     11  0.000000D+00
     12 -0.339893D-01  0.000000D+00
     13  0.770157D+00 -0.131167D+02  0.000000D+00
     14 -0.202254D+00 -0.123847D+02 -0.122464D+02  0.000000D+00
     15 -0.176426D+00 -0.161865D-01 -0.259846D+00 -0.207666D+00  0.000000D+00
     16  0.641122D+00  0.353099D+00  0.217891D+00  0.383755D+01 -0.122311D+02
     17  0.717809D+00 -0.133754D+00 -0.822034D-01  0.790186D+00 -0.130774D+02
     18 -0.638696D+00 -0.152553D+00 -0.357071D+00 -0.144971D+00 -0.166693D+00
     19  0.546275D+01  0.250126D-01 -0.330629D-01  0.100856D+00  0.159339D+00
     20  0.880415D+01  0.155919D-01  0.158874D+00 -0.124507D+00  0.112902D-01
     21 -0.649190D+00  0.752785D-01  0.127257D-01 -0.751673D-01 -0.310139D-01
     22 -0.141208D+00 -0.291481D-01  0.369093D-01  0.491652D-01  0.731023D+00
     23  0.829560D+00  0.628580D-01  0.852489D-01  0.180582D-01  0.100608D+00
     24 -0.112215D+00  0.561958D-01  0.248336D-01  0.440528D-01  0.371798D-01
     25 -0.207698D+00 -0.643298D-01  0.349451D-01  0.109420D-01 -0.450484D-01
     26  0.116649D+03  0.453701D-02 -0.202068D-01  0.745549D-02 -0.497819D-02
     27  0.119411D+03 -0.108662D+00  0.680514D+00 -0.239014D-02 -0.796982D-02
               16            17            18            19            20 
     16  0.000000D+00
     17 -0.129167D+02  0.000000D+00
     18 -0.927956D-01 -0.324043D+00  0.000000D+00
     19 -0.174064D-01  0.743190D+00  0.679366D+00  0.000000D+00
     20  0.626461D-02  0.129410D-02  0.433140D+01 -0.124180D+02  0.000000D+00
     21  0.188100D-01  0.251519D-01  0.490901D+00  0.363374D+01  0.114926D+02
     22  0.297394D-01  0.272314D-01 -0.317518D+00  0.971301D+01  0.468283D+01
     23  0.823263D-01  0.440133D-02 -0.271764D-01  0.152058D+00 -0.243192D-01
     24  0.267661D-01  0.730650D-01  0.664271D-01  0.326164D+00  0.551338D-01
     25  0.202368D-01  0.360178D-01  0.822067D+00  0.183628D-02  0.163671D-01
     26  0.512908D+00  0.508584D+00  0.490296D+01  0.515575D+00  0.253875D+01
     27  0.410597D+00  0.595160D-01  0.510669D+00 -0.254543D+00  0.370069D+00
               21            22            23            24            25 
     21  0.000000D+00
     22 -0.134249D+02  0.000000D+00
     23 -0.195962D+00 -0.221042D+00  0.000000D+00
     24  0.264617D+00 -0.531807D+00 -0.115341D+02  0.000000D+00
     25 -0.137607D+00 -0.148141D+00 -0.124958D+02 -0.136147D+02  0.000000D+00
     26 -0.102967D+01 -0.639566D-02  0.176870D+00 -0.223181D-01  0.508970D-01
     27  0.124584D+00  0.107119D+00  0.145110D+00  0.147051D+00  0.127326D-01
               26            27 
     26  0.000000D+00
     27 -0.187774D+02  0.000000D+00
 Spin-dipolar (SD) contribution to K (Hz):
                1             2             3             4             5 
      1  0.000000D+00
      2  0.488568D+00  0.000000D+00
      3 -0.249446D-01  0.515454D+00  0.000000D+00
      4 -0.186112D-01  0.511900D+00 -0.181163D-01  0.000000D+00
      5 -0.790339D-02 -0.203864D-01  0.167295D-01  0.544496D+00  0.000000D+00
      6 -0.615274D-02 -0.181187D-01  0.199527D-01 -0.253816D-01  0.584162D+00
      7 -0.133767D-01  0.482638D+00 -0.192950D-01  0.869891D-02 -0.220544D-01
      8 -0.498109D-02 -0.169529D-02 -0.556843D-02  0.860243D-02  0.877349D-02
      9  0.153468D-01 -0.114634D-01 -0.662762D-02 -0.160706D-01 -0.802833D-02
     10  0.734492D-02 -0.836962D-01 -0.213395D-01 -0.513280D-01 -0.920742D-02
     11  0.170103D-01 -0.271091D-01 -0.729832D-02  0.518456D+00 -0.278210D-01
     12  0.191868D-01  0.602062D-02 -0.489626D-02 -0.229472D-02 -0.351360D-02
     13  0.192841D-01  0.655366D-02 -0.376189D-02  0.348491D-02 -0.336678D-02
     14  0.218737D-01  0.101165D-01  0.113704D-02 -0.379036D-02 -0.961214D-02
     15 -0.385773D-02  0.683344D-02  0.196262D-01 -0.327380D-02  0.351545D-02
     16  0.846600D-03  0.878275D-02  0.200786D-01 -0.346852D-02  0.531620D-03
     17 -0.502797D-02  0.671261D-02  0.191171D-01  0.331010D-02 -0.560660D-03
     18 -0.297503D-02  0.156366D-01 -0.237589D-02  0.257741D-01  0.818939D-02
     19 -0.169749D-02 -0.183885D-02  0.812133D-03  0.733494D-02  0.193789D-01
     20 -0.565849D-02 -0.475476D-02  0.289073D-02  0.710318D-02  0.203082D-01
     21 -0.443108D-02 -0.450021D-02  0.244130D-02 -0.374394D-02  0.647188D-02
     22 -0.164887D-02 -0.233001D-02  0.144893D-02 -0.392962D-02  0.687244D-02
     23 -0.600311D-02 -0.156669D-02 -0.241732D-02 -0.296545D-03 -0.107217D-03
     24 -0.214927D-02 -0.284448D-02 -0.719378D-02  0.457151D-03 -0.471606D-03
     25 -0.188132D-02  0.605200D-02 -0.232246D-02 -0.140866D-02  0.321141D-02
     26  0.280115D-02 -0.452680D-02 -0.718316D-02  0.619157D-02  0.629000D-03
     27  0.741418D-03 -0.201831D-02 -0.183150D-02  0.662345D-02 -0.432925D-02
                6             7             8             9            10 
      6  0.000000D+00
      7  0.544472D+00  0.000000D+00
      8 -0.184951D-01  0.467057D+00  0.000000D+00
      9 -0.461001D-01  0.320262D+00 -0.171877D-01  0.000000D+00
     10  0.449329D-01  0.148351D+00 -0.208668D-02  0.173780D+01  0.000000D+00
     11 -0.862128D-02 -0.395434D-01  0.131234D-01  0.363352D+00  0.200189D+00
     12 -0.328361D-02  0.411454D-02 -0.168921D-02 -0.696729D-04 -0.203348D-02
     13 -0.311042D-02 -0.198407D-02 -0.590387D-02  0.120722D-02 -0.262261D-02
     14 -0.845267D-02 -0.376075D-02 -0.208498D-02  0.266040D-02  0.242677D-02
     15 -0.578150D-03  0.189140D-02 -0.131200D-02 -0.245956D-02  0.387214D-02
     16  0.251763D-02 -0.519301D-02 -0.251303D-02 -0.813532D-02  0.533778D-01
     17  0.108994D-02 -0.248022D-02 -0.446801D-02 -0.285142D-02  0.631344D-02
     18 -0.914523D-03 -0.363462D-02  0.207827D-02 -0.673938D-04 -0.529139D-02
     19  0.768287D-02 -0.371165D-02  0.215575D-02 -0.319295D-02  0.494631D-02
     20  0.702600D-02 -0.394822D-02  0.374902D-03 -0.200687D-02 -0.446949D-02
     21  0.221091D-01  0.943479D-02 -0.449976D-02 -0.360044D-03 -0.615688D-02
     22  0.218585D-01  0.171905D-02 -0.262739D-02 -0.445679D-02  0.644379D-01
     23 -0.287975D-02  0.868111D-02  0.202124D-01  0.503178D-02  0.239291D-02
     24  0.325436D-02  0.734907D-02  0.193931D-01 -0.365748D-02 -0.473997D-02
     25 -0.407083D-02  0.860013D-02  0.197542D-01 -0.620404D-02 -0.417066D-02
     26 -0.282108D-02 -0.472941D-02  0.255651D-03  0.175010D-01  0.316633D-01
     27 -0.436446D-02 -0.450214D-02  0.216577D-02  0.144358D-01  0.190327D-01
               11            12            13            14            15 
     11  0.000000D+00
     12  0.286511D-02  0.000000D+00
     13 -0.820818D-03  0.101668D-01  0.000000D+00
     14  0.885115D-03  0.997916D-02  0.102042D-01  0.000000D+00
     15 -0.403532D-02  0.135170D-02 -0.231072D-03 -0.234401D-03  0.000000D+00
     16 -0.895920D-02 -0.148621D-03 -0.215591D-03  0.443966D-03  0.963794D-02
     17 -0.310525D-02  0.705914D-03  0.120038D-02 -0.966648D-04  0.103485D-01
     18  0.976778D-02  0.114705D-02 -0.738152D-04  0.201060D-03  0.116152D-02
     19 -0.392599D-02 -0.262490D-03 -0.158786D-03  0.148557D-04  0.154167D-03
     20  0.740614D-03  0.896064D-04 -0.152053D-04 -0.152415D-02  0.000000D+00
     21 -0.258486D-02 -0.608292D-04  0.139883D-03 -0.834535D-03 -0.673677D-04
     22 -0.351155D-02 -0.197397D-03 -0.256446D-03 -0.816791D-04 -0.655923D-04
     23  0.376680D-03 -0.204668D-04 -0.486037D-03  0.271724D-03 -0.192388D-03
     24  0.178027D-03 -0.218708D-03  0.254810D-03 -0.253649D-03 -0.778277D-05
     25  0.342932D-02 -0.705439D-04  0.164161D-04 -0.230410D-03 -0.120731D-03
     26  0.197499D-01 -0.305998D-04 -0.383671D-04  0.142748D-03  0.356251D-03
     27  0.195113D-01  0.900027D-04  0.478656D-04 -0.486180D-04 -0.264351D-03
[...]
     13 -0.297580D-01  0.153233D+00  0.275277D-01 -0.486891D-01 -0.130470D-01
     14  0.333324D-01  0.198353D+00 -0.134680D-01 -0.435052D-01 -0.269133D-01
     15  0.342905D-01  0.866415D+00  0.865186D-02  0.236836D-02 -0.688725D-03
     16 -0.133361D-01  0.382084D+00  0.195892D-02  0.773068D-02  0.133950D+00
     17 -0.151262D-01  0.414985D-01  0.270495D-01 -0.193454D-01  0.126164D-01
     18  0.825657D+00  0.519375D+00  0.732273D-01  0.103365D+01 -0.896761D-03
     19 -0.243820D+00  0.238629D+00 -0.126609D-01 -0.418632D-01 -0.271965D-02
     20 -0.415340D+00  0.115172D+00 -0.209613D-01 -0.104431D+00 -0.236227D-01
     21  0.157171D+02 -0.453666D+00  0.432923D+00  0.853909D+00  0.146584D+00
     22  0.155843D+02 -0.282346D+00  0.287190D-01  0.640180D+00  0.140605D+00
     23  0.386302D+00 -0.479193D+00  0.147659D+02  0.103932D+01  0.377864D-01
     24  0.111652D+01 -0.527727D+00  0.147116D+02  0.167442D+00 -0.206952D-01
     25  0.147888D+00 -0.632297D+00  0.151687D+02  0.219812D+00  0.651425D-02
     26 -0.106317D+00 -0.321367D-01  0.368093D-01 -0.810867D+00  0.402616D+00
     27 -0.111410D-01  0.116642D+00 -0.224436D-01 -0.626583D+00  0.293589D+00
               11            12            13            14            15 
     11  0.000000D+00
     12 -0.632278D-02  0.000000D+00
     13  0.906771D-01 -0.413662D+00  0.000000D+00
     14 -0.321903D-01 -0.389996D+00 -0.384917D+00  0.000000D+00
     15 -0.266311D-01  0.688770D-02 -0.126172D-01 -0.143050D-01  0.000000D+00
     16  0.860884D-01  0.386746D-02  0.609138D-03  0.115254D+00 -0.384882D+00
     17  0.824109D-01 -0.441509D-02  0.916156D-02  0.184895D-01 -0.411984D+00
     18 -0.789709D-01  0.198742D-02 -0.187056D-01 -0.678728D-02  0.276179D-02
     19  0.698659D+00 -0.537678D-02 -0.890958D-02 -0.947464D-03  0.203938D-03
     20  0.111207D+01  0.226341D-02  0.111725D-02  0.106320D-01 -0.336154D-02
     21 -0.950958D-01 -0.177165D-02  0.139459D-02  0.114697D-01 -0.707746D-02
     22 -0.245248D-01 -0.866765D-02 -0.549257D-02 -0.277129D-02  0.165664D-01
     23  0.997877D-01 -0.183012D-02  0.133348D-01  0.522455D-02 -0.262797D-02
     24 -0.198431D-01 -0.321021D-02  0.454354D-02 -0.364819D-02 -0.240005D-02
     25 -0.301799D-01 -0.898173D-02 -0.247276D-02 -0.415720D-02 -0.850351D-02
     26  0.151351D+02 -0.317541D-02 -0.601498D-02 -0.585216D-02  0.478494D-02
     27  0.154818D+02 -0.868782D-02  0.150031D-01 -0.534790D-02 -0.592504D-02
               16            17            18            19            20 
     16  0.000000D+00
     17 -0.405293D+00  0.000000D+00
     18 -0.684856D-02 -0.172115D-01  0.000000D+00
     19 -0.606822D-02  0.170217D-01  0.178505D-01  0.000000D+00
     20 -0.619112D-02 -0.526466D-02  0.143321D+00 -0.387532D+00  0.000000D+00
     21 -0.552523D-02 -0.336165D-02  0.725502D-02  0.105267D+00  0.379007D+00
     22 -0.440600D-02 -0.526514D-02 -0.194603D-01  0.322261D+00  0.138735D+00
     23 -0.220818D-02  0.169098D-02 -0.702447D-02 -0.485158D-03 -0.330132D-02
     24  0.886164D-02  0.131106D-01 -0.384082D-02  0.381448D-02 -0.444064D-02
     25 -0.274634D-02 -0.265941D-02  0.190403D-01 -0.434970D-02 -0.470290D-02
     26  0.309243D-01  0.124227D-01  0.161624D+00  0.101054D-01  0.741245D-01
     27  0.915074D-02 -0.611353D-02  0.118374D-01  0.528745D-02  0.523421D-02
               21            22            23            24            25 
     21  0.000000D+00
     22 -0.418432D+00  0.000000D+00
     23  0.454921D-02 -0.112088D-01  0.000000D+00
     24  0.226041D-02 -0.242306D-01 -0.363914D+00  0.000000D+00
     25 -0.379255D-02  0.121355D-02 -0.394785D+00 -0.429044D+00  0.000000D+00
     26 -0.421380D-01 -0.810823D-02 -0.987982D-03 -0.361332D-02 -0.481962D-02
     27 -0.338810D-02  0.631459D-02 -0.219454D-02 -0.206054D-02 -0.505748D-02
               26            27 
     26  0.000000D+00
     27 -0.589202D+00  0.000000D+00
 Total nuclear spin-spin coupling J (Hz): 
                1             2             3             4             5 
      1  0.000000D+00
      2  0.353738D+02  0.000000D+00
      3  0.279142D+01  0.341065D+02  0.000000D+00
      4  0.249209D-01  0.296546D+02  0.479689D+00  0.000000D+00
      5  0.169518D+01  0.145699D+01  0.259714D+01  0.302866D+02  0.000000D+00
      6  0.171307D+01  0.116739D+01  0.255689D+01 -0.607108D+00  0.302066D+02
      7 -0.455597D-01  0.320362D+02  0.893496D+00  0.446571D+01  0.217904D-01
      8  0.586451D+00  0.943493D+00  0.793118D+00  0.309824D+01  0.292924D+01
      9  0.314464D+01  0.382600D+01  0.143498D+01  0.100678D+01  0.434084D+00
     10 -0.965242D-01 -0.300837D+00 -0.112982D-01 -0.361111D+00  0.183048D+00
     11  0.143943D+01 -0.445679D+00  0.167482D+01  0.313373D+02 -0.642198D+00
     12  0.115385D+03 -0.375647D+01  0.215234D+01  0.235853D+01 -0.228707D+00
     13  0.115885D+03 -0.405239D+01  0.294119D+01  0.790743D+01  0.518634D+00
     14  0.114485D+03 -0.343508D+01  0.959682D+01  0.121735D+01  0.397361D+00
     15  0.929809D+00 -0.364212D+01  0.115604D+03  0.327200D+01 -0.232794D+00
     16  0.897142D+01 -0.321984D+01  0.114362D+03  0.280075D+00 -0.378885D+00
     17  0.427998D+01 -0.378289D+01  0.116160D+03  0.727258D+01  0.418272D+00
     18  0.137031D+01 -0.558932D+00  0.100209D+01  0.130466D+03 -0.128894D+00
     19  0.258546D+00  0.610535D+01  0.383407D+00 -0.269657D+01  0.121441D+03
     20  0.554836D+00  0.232223D+00 -0.320677D+00 -0.292931D+01  0.119658D+03
     21  0.313545D+00  0.241789D+00 -0.285925D+00  0.144391D+01 -0.324319D+01
     22  0.510131D-01  0.586111D+01  0.155743D+00  0.144239D+01 -0.185130D+01
     23  0.244560D+00  0.833947D+00 -0.147110D+00 -0.286263D+00 -0.991316D-01
     24 -0.151441D+00  0.141496D+01  0.230662D+00 -0.352751D+00  0.875605D+00
     25 -0.151916D-01  0.701986D+01 -0.147446D+00 -0.341455D+00 -0.223481D+00
     26 -0.292563D+00  0.524153D+00  0.911098D+00 -0.227262D+01  0.849355D+01
     27  0.871488D+00  0.814889D+01  0.469866D+00 -0.216044D+01  0.560777D+01
                6             7             8             9            10 
      6  0.000000D+00
      7  0.272948D+02  0.000000D+00
      8  0.161750D+01  0.378583D+02  0.000000D+00
      9 -0.265739D+01  0.384488D+02 -0.732887D-01  0.000000D+00
     10 -0.111135D+01 -0.174855D+00 -0.666730D+00  0.331302D+02  0.000000D+00
     11 -0.490003D-03  0.118831D+02  0.107629D+01  0.347068D+02 -0.915271D+00
     12  0.528966D+00  0.702553D+01 -0.853452D-01  0.372509D+00 -0.139266D+00
     13 -0.233508D+00  0.120240D+01  0.216008D+00 -0.382059D+00  0.552056D-01
     14  0.261556D+00  0.155646D+01 -0.105682D+00 -0.341381D+00  0.113878D+00
     15  0.269074D+00  0.679867D+01  0.678903D-01  0.185843D-01  0.291418D-02
     16 -0.104647D+00  0.299818D+01  0.153715D-01  0.606619D-01 -0.566780D+00
     17 -0.118694D+00  0.325635D+00  0.212255D+00 -0.151802D+00 -0.533835D-01
     18  0.647885D+01  0.407549D+01  0.574608D+00  0.811092D+01  0.379444D-02
     19 -0.191324D+01  0.187250D+01 -0.993485D-01 -0.328496D+00  0.115076D-01
     20 -0.325913D+01  0.903745D+00 -0.164481D+00 -0.819460D+00  0.999542D-01
     21  0.123331D+03 -0.355987D+01  0.339711D+01  0.670054D+01 -0.620238D+00
     22  0.122289D+03 -0.221554D+01  0.225355D+00  0.502343D+01 -0.594938D+00
     23  0.303127D+01 -0.376018D+01  0.115866D+03  0.815543D+01 -0.159884D+00
     24  0.876120D+01 -0.414103D+01  0.115440D+03  0.131390D+01  0.875669D-01
     25  0.116046D+01 -0.496157D+01  0.119027D+03  0.172484D+01 -0.275636D-01
     26 -0.834257D+00 -0.252174D+00  0.288839D+00 -0.636280D+01 -0.170358D+01
     27 -0.874225D-01  0.915278D+00 -0.176112D+00 -0.491674D+01 -0.124226D+01
               11            12            13            14            15 
     11  0.000000D+00
     12 -0.496142D-01  0.000000D+00
     13  0.711534D+00 -0.129062D+02  0.000000D+00
     14 -0.252594D+00 -0.121678D+02 -0.120094D+02  0.000000D+00
     15 -0.208972D+00  0.214896D+00 -0.393656D+00 -0.446314D+00  0.000000D+00
     16  0.675527D+00  0.120665D+00  0.190051D-01  0.359593D+01 -0.120083D+02
     17  0.646670D+00 -0.137751D+00  0.285840D+00  0.576871D+00 -0.128539D+02
     18 -0.619677D+00  0.620073D-01 -0.583613D+00 -0.211763D+00  0.861676D-01
     19  0.548231D+01 -0.167755D+00 -0.277979D+00 -0.295608D-01  0.636286D-02
     20  0.872631D+01  0.706182D-01  0.348582D-01  0.331719D+00 -0.104880D+00
     21 -0.746207D+00 -0.552753D-01  0.435112D-01  0.357853D+00 -0.220816D+00
     22 -0.192444D+00 -0.270430D+00 -0.171368D+00 -0.864642D-01  0.516870D+00
     23  0.783024D+00 -0.570998D-01  0.416046D+00  0.163006D+00 -0.819925D-01
     24 -0.155707D+00 -0.100158D+00  0.141758D+00 -0.113823D+00 -0.748815D-01
     25 -0.236819D+00 -0.280229D+00 -0.771501D-01 -0.129704D+00 -0.265309D+00
     26  0.118764D+03 -0.990725D-01 -0.187667D+00 -0.182587D+00  0.149290D+00
     27  0.121485D+03 -0.271060D+00  0.468095D+00 -0.166854D+00 -0.184861D+00
               16            17            18            19            20 
     16  0.000000D+00
     17 -0.126451D+02  0.000000D+00
     18 -0.213675D+00 -0.536996D+00  0.000000D+00
     19 -0.189328D+00  0.531076D+00  0.556936D+00  0.000000D+00
     20 -0.193163D+00 -0.164257D+00  0.447161D+01 -0.120910D+02  0.000000D+00
     21 -0.172387D+00 -0.104883D+00  0.226356D+00  0.328433D+01  0.118250D+02
     22 -0.137467D+00 -0.164272D+00 -0.607162D+00  0.100545D+02  0.432851D+01
     23 -0.688950D-01  0.527584D-01 -0.219163D+00 -0.151369D-01 -0.103001D+00
     24  0.276483D+00  0.409051D+00 -0.119833D+00  0.119012D+00 -0.138548D+00
     25 -0.856855D-01 -0.829735D-01  0.594055D+00 -0.135711D+00 -0.146730D+00
     26  0.964837D+00  0.387589D+00  0.504265D+01  0.315288D+00  0.231268D+01
     27  0.285503D+00 -0.190742D+00  0.369328D+00  0.164968D+00  0.163307D+00
               21            22            23            24            25 
     21  0.000000D+00
     22 -0.130550D+02  0.000000D+00
     23  0.141935D+00 -0.349714D+00  0.000000D+00
     24  0.705247D-01 -0.755994D+00 -0.113541D+02  0.000000D+00
     25 -0.118327D+00  0.378627D-01 -0.123173D+02 -0.133861D+02  0.000000D+00
     26 -0.131470D+01 -0.252977D+00 -0.308250D-01 -0.112736D+00 -0.150372D+00
     27 -0.105709D+00  0.197015D+00 -0.684695D-01 -0.642886D-01 -0.157793D+00
               26            27 
     26  0.000000D+00
     27 -0.183831D+02  0.000000D+00
 End of Minotr F.D. properties file   721 does not exist.
 End of Minotr F.D. properties file   722 does not exist.
 End of Minotr F.D. properties file   788 does not exist.

 **********************************************************************

            Population analysis using the SCF Density.

 **********************************************************************

 Orbital symmetries:
       Occupied  (A) (A) (A) (A) (A) (A) (A) (A) (A) (A) (A) (A)
                 (A) (A) (A) (A) (A) (A) (A) (A) (A) (A) (A) (A)
                 (A) (A) (A) (A) (A) (A) (A) (A) (A) (A) (A) (A)
                 (A) (A) (A) (A) (A) (A)
       Virtual   (A) (A) (A) (A) (A) (A) (A) (A) (A) (A) (A) (A)
                 (A) (A) (A) (A) (A) (A) (A) (A) (A) (A) (A) (A)
                 (A) (A) (A) (A) (A) (A) (A) (A) (A) (A) (A) (A)
                 (A) (A) (A) (A) (A) (A) (A) (A) (A) (A) (A) (A)
                 (A) (A) (A) (A) (A) (A) (A) (A) (A) (A) (A) (A)
                 (A) (A) (A) (A) (A) (A) (A) (A) (A) (A) (A) (A)
                 (A) (A) (A) (A) (A) (A) (A) (A) (A) (A) (A) (A)
                 (A) (A) (A) (A) (A) (A) (A) (A) (A) (A) (A) (A)
                 (A) (A) (A) (A) (A) (A) (A) (A) (A) (A) (A) (A)
                 (A) (A) (A) (A) (A) (A) (A) (A) (A) (A) (A) (A)
                 (A) (A) (A) (A) (A) (A) (A) (A) (A) (A) (A) (A)
                 (A) (A) (A) (A) (A) (A) (A) (A) (A) (A) (A) (A)
                 (A) (A) (A) (A) (A) (A) (A) (A) (A) (A) (A) (A)
                 (A) (A) (A) (A) (A) (A) (A) (A) (A) (A) (A) (A)
                 (A) (A) (A) (A) (A) (A) (A) (A) (A) (A) (A) (A)
                 (A) (A) (A) (A) (A) (A) (A) (A) (A) (A) (A) (A)
                 (A) (A) (A) (A) (A) (A) (A) (A) (A) (A) (A) (A)
                 (A) (A) (A) (A) (A) (A) (A) (A) (A) (A) (A) (A)
                 (A) (A) (A) (A) (A) (A) (A) (A) (A) (A) (A) (A)
                 (A) (A) (A) (A) (A) (A) (A) (A) (A) (A) (A) (A)
                 (A) (A) (A) (A) (A) (A) (A) (A) (A) (A) (A) (A)
 The electronic state is 1-A.
 Alpha  occ. eigenvalues --  -19.22691 -10.36385 -10.30121 -10.29475 -10.29211
 Alpha  occ. eigenvalues --  -10.28694 -10.28383 -10.28274 -10.27459 -10.27444
 Alpha  occ. eigenvalues --  -10.26932  -1.13955  -1.00125  -0.87708  -0.86921
 Alpha  occ. eigenvalues --   -0.84297  -0.78578  -0.76882  -0.74212  -0.68197
 Alpha  occ. eigenvalues --   -0.63754  -0.59452  -0.58166  -0.57830  -0.56014
 Alpha  occ. eigenvalues --   -0.53664  -0.51204  -0.50219  -0.49643  -0.48782
 Alpha  occ. eigenvalues --   -0.48409  -0.47566  -0.46718  -0.46072  -0.44302
 Alpha  occ. eigenvalues --   -0.42983  -0.42615  -0.41748  -0.40483  -0.39294
 Alpha  occ. eigenvalues --   -0.37931  -0.31652
 Alpha virt. eigenvalues --    0.05977   0.10518   0.13330   0.14053   0.14252
 Alpha virt. eigenvalues --    0.15631   0.16672   0.17891   0.18532   0.19220
 Alpha virt. eigenvalues --    0.20015   0.20280   0.20765   0.22555   0.23232
 Alpha virt. eigenvalues --    0.23972   0.24104   0.25361   0.25981   0.27300
 Alpha virt. eigenvalues --    0.28219   0.30119   0.30374   0.30906   0.32444
 Alpha virt. eigenvalues --    0.33656   0.34255   0.35840   0.36394   0.39256
 Alpha virt. eigenvalues --    0.39981   0.41548   0.41829   0.45244   0.46355
 Alpha virt. eigenvalues --    0.47872   0.48974   0.51424   0.51589   0.54292
 Alpha virt. eigenvalues --    0.54554   0.55976   0.57519   0.58886   0.59743
 Alpha virt. eigenvalues --    0.60928   0.62723   0.63604   0.64118   0.64915
 Alpha virt. eigenvalues --    0.65092   0.65967   0.66613   0.66994   0.67452
 Alpha virt. eigenvalues --    0.67962   0.68201   0.68738   0.69783   0.70122
 Alpha virt. eigenvalues --    0.70689   0.71179   0.72330   0.72517   0.72759
 Alpha virt. eigenvalues --    0.74168   0.75077   0.76024   0.77213   0.77835
 Alpha virt. eigenvalues --    0.79263   0.80846   0.83521   0.85941   0.87571
 Alpha virt. eigenvalues --    0.90242   0.96094   0.96966   0.99076   1.03440
 Alpha virt. eigenvalues --    1.06896   1.07602   1.10414   1.11639   1.15197
 Alpha virt. eigenvalues --    1.18098   1.19559   1.24037   1.25027   1.27458
 Alpha virt. eigenvalues --    1.30362   1.33286   1.34654   1.35193   1.39524
 Alpha virt. eigenvalues --    1.40847   1.42246   1.43735   1.46983   1.48790
 Alpha virt. eigenvalues --    1.50540   1.52003   1.53345   1.54310   1.55092
 Alpha virt. eigenvalues --    1.55731   1.56080   1.59935   1.60723   1.61571
 Alpha virt. eigenvalues --    1.61623   1.63758   1.64068   1.65583   1.66701
 Alpha virt. eigenvalues --    1.67198   1.68913   1.69317   1.70070   1.71925
 Alpha virt. eigenvalues --    1.72602   1.73630   1.73990   1.74476   1.77079
 Alpha virt. eigenvalues --    1.77224   1.78826   1.79281   1.81376   1.83896
 Alpha virt. eigenvalues --    1.83985   1.85981   1.86482   1.88234   1.88989
 Alpha virt. eigenvalues --    1.89606   1.90761   1.91437   1.93612   1.95420
 Alpha virt. eigenvalues --    1.96801   1.98679   1.98951   2.00886   2.02845
 Alpha virt. eigenvalues --    2.04661   2.07064   2.10660   2.12210   2.13021
 Alpha virt. eigenvalues --    2.16127   2.19838   2.20094   2.23210   2.24174
 Alpha virt. eigenvalues --    2.25297   2.26484   2.27357   2.32298   2.36020
 Alpha virt. eigenvalues --    2.37460   2.38486   2.40346   2.42717   2.46119
 Alpha virt. eigenvalues --    2.47477   2.48933   2.50222   2.50467   2.53593
 Alpha virt. eigenvalues --    2.54082   2.55460   2.56125   2.56434   2.59940
 Alpha virt. eigenvalues --    2.60713   2.61690   2.61963   2.63614   2.65498
 Alpha virt. eigenvalues --    2.66182   2.66745   2.68992   2.69630   2.70574
 Alpha virt. eigenvalues --    2.74119   2.76497   2.78115   2.80192   2.80686
 Alpha virt. eigenvalues --    2.83134   2.84268   2.85400   2.88663   2.89621
 Alpha virt. eigenvalues --    2.93673   2.96110   2.97793   2.98423   3.00361
 Alpha virt. eigenvalues --    3.01305   3.02735   3.05459   3.08503   3.10831
 Alpha virt. eigenvalues --    3.14322   3.17072   3.19050   3.25323   3.28036
 Alpha virt. eigenvalues --    3.28824   3.31008   3.38275   3.41588   3.46855
 Alpha virt. eigenvalues --    3.51171   3.58167   3.61912   3.71963   3.80262
 Alpha virt. eigenvalues --    3.85276   3.88656   3.89685   3.91402   3.92069
 Alpha virt. eigenvalues --    3.93385   3.94232   3.94889   4.06447   4.14919
 Alpha virt. eigenvalues --    4.19886   4.27665   4.31451   4.36915   4.40508
 Alpha virt. eigenvalues --    4.44681   4.48631   4.57721   5.09958   5.18230
 Alpha virt. eigenvalues --    5.76116  23.92237  23.96644  23.98344  24.00807
 Alpha virt. eigenvalues --   24.07656  24.08573  24.10334  24.10680  24.12539
 Alpha virt. eigenvalues --   24.17932  50.14679
          Condensed to atoms (all electrons):
 Mulliken charges:
               1
     1  C   -0.244711
     2  C   -0.247316
     3  C   -0.247608
     4  C   -0.165288
     5  C   -0.206680
     6  C   -0.191939
     7  C   -0.305404
     8  C   -0.235401
     9  C    0.279768
    10  O   -0.306630
    11  C   -0.213275
    12  H    0.121887
    13  H    0.123542
    14  H    0.112837
    15  H    0.123060
    16  H    0.122862
    17  H    0.124190
    18  H    0.122825
    19  H    0.130490
    20  H    0.134560
    21  H    0.141531
    22  H    0.146235
    23  H    0.114116
    24  H    0.120376
    25  H    0.134957
    26  H    0.159376
    27  H    0.151641
 Sum of Mulliken charges =  -0.00000
 Mulliken charges with hydrogens summed into heavy atoms:
               1
     1  C    0.113555
     2  C   -0.247316
     3  C    0.122504
     4  C   -0.042463
     5  C    0.058370
     6  C    0.095827
     7  C   -0.305404
     8  C    0.134048
     9  C    0.279768
    10  O   -0.306630
    11  C    0.097742
 Electronic spatial extent (au):  <R**2>=           1462.6499
 Charge=              0.0000 electrons
 Dipole moment (field-independent basis, Debye):
    X=             -2.9593    Y=              0.9933    Z=             -0.1323  Tot=              3.1244

 Test job not archived.
 1\1\GINC-BP1-COMPUTE081\SP\RwB97XD\Gen\C10H16O1\MX23826\21-Feb-2025\0\
 \#T Geom=AllCheck Guess=TCheck SCRF=Check GenChk RwB97XD/ChkBas NMR=Re
 adFC IOp(3/6=22)\\\0,1\C,0,-1.208881,-0.431355,-1.605909\C,0,-0.733601
 ,-0.25412,-0.165577\C,0,-1.537225,-1.219102,0.710252\C,0,-0.765741,1.2
 08652,0.331944\C,0,0.257864,1.903591,-0.575345\C,0,1.354432,0.834136,-
 0.731455\C,0,0.795716,-0.394443,0.03389\C,0,1.46495,-1.708802,-0.30945
 9\C,0,0.949128,0.047325,1.475833\O,0,1.780716,-0.331901,2.270599\C,0,-
 0.107977,1.103361,1.709234\H,0,-2.267548,-0.186876,-1.66896\H,0,-1.082
 283,-1.467128,-1.91264\H,0,-0.67171,0.196122,-2.307393\H,0,-2.562209,-
 0.867098,0.810332\H,0,-1.108233,-1.329707,1.702589\H,0,-1.563618,-2.20
 4696,0.250435\H,0,-1.746174,1.681778,0.342075\H,0,0.637942,2.816194,-0
 .116774\H,0,-0.181141,2.176571,-1.533628\H,0,1.527261,0.568112,-1.7733
 85\H,0,2.308736,1.151645,-0.309018\H,0,1.402322,-1.904466,-1.377292\H,
 0,0.993181,-2.526701,0.229614\H,0,2.513388,-1.673528,-0.019458\H,0,-0.
 797095,0.778713,2.488886\H,0,0.347802,2.03372,2.050609\\Version=ES64L-
 G16RevC.01\State=1-A\HF=-465.9131233\RMSD=2.769e-09\Dipole=-0.8184995,
 0.3689485,-0.8395904\Quadrupole=-0.4901197,2.4375301,-1.9474104,1.1407
 403,-4.2188481,1.5805714\PG=C01 [X(C10H16O1)]\\@


 The mind is not a vessel to be filled but a fire to be kindled.
                                  -- Plutarch
 Job cpu time:       0 days  4 hours 35 minutes  8.5 seconds.
 Elapsed time:       0 days  0 hours 34 minutes 43.3 seconds.
 File lengths (MBytes):  RWF=    522 Int=      0 D2E=      0 Chk=     32 Scr=      1
 Normal termination of Gaussian 16 at Fri Feb 21 13:42:02 2025.
